VARIABLES="X" "Y" "Z" "NX" "NY" "NZ" "A"
 ZONE N=        5000 , E=        1250  , F=FEPOINT,ET=QUADRILATERAL
   0.2556400E+00   0.2972000E-01  -0.1797050E+01   0.0000000E+00   0.0000000E+00   0.0000000E+00   0.0000000E+00
   0.2569400E+00   0.1472000E-01  -0.1797050E+01   0.0000000E+00   0.0000000E+00   0.0000000E+00   0.0000000E+00
   0.0000000E+00   0.0000000E+00  -0.1800000E+01   0.0000000E+00   0.0000000E+00   0.0000000E+00   0.0000000E+00
   0.2569400E+00   0.1472000E-01  -0.1797050E+01   0.0000000E+00   0.0000000E+00   0.0000000E+00   0.0000000E+00
   0.2534100E+00   0.4492000E-01  -0.1797050E+01   0.0000000E+00   0.0000000E+00   0.0000000E+00   0.0000000E+00
   0.2556400E+00   0.2972000E-01  -0.1797050E+01   0.0000000E+00   0.0000000E+00   0.0000000E+00   0.0000000E+00
   0.0000000E+00   0.0000000E+00  -0.1800000E+01   0.0000000E+00   0.0000000E+00   0.0000000E+00   0.0000000E+00
   0.2556400E+00   0.2972000E-01  -0.1797050E+01   0.0000000E+00   0.0000000E+00   0.0000000E+00   0.0000000E+00
   0.2502100E+00   0.6025000E-01  -0.1797050E+01   0.0000000E+00   0.0000000E+00   0.0000000E+00   0.0000000E+00
   0.2534100E+00   0.4492000E-01  -0.1797050E+01   0.0000000E+00   0.0000000E+00   0.0000000E+00   0.0000000E+00
   0.0000000E+00   0.0000000E+00  -0.1800000E+01   0.0000000E+00   0.0000000E+00   0.0000000E+00   0.0000000E+00
   0.2534100E+00   0.4492000E-01  -0.1797050E+01   0.0000000E+00   0.0000000E+00   0.0000000E+00   0.0000000E+00
   0.2460100E+00   0.7562000E-01  -0.1797050E+01   0.0000000E+00   0.0000000E+00   0.0000000E+00   0.0000000E+00
   0.2502100E+00   0.6025000E-01  -0.1797050E+01   0.0000000E+00   0.0000000E+00   0.0000000E+00   0.0000000E+00
   0.0000000E+00   0.0000000E+00  -0.1800000E+01   0.0000000E+00   0.0000000E+00   0.0000000E+00   0.0000000E+00
   0.2502100E+00   0.6025000E-01  -0.1797050E+01   0.0000000E+00   0.0000000E+00   0.0000000E+00   0.0000000E+00
   0.2407700E+00   0.9093000E-01  -0.1797050E+01   0.0000000E+00   0.0000000E+00   0.0000000E+00   0.0000000E+00
   0.2460100E+00   0.7562000E-01  -0.1797050E+01   0.0000000E+00   0.0000000E+00   0.0000000E+00   0.0000000E+00
   0.0000000E+00   0.0000000E+00  -0.1800000E+01   0.0000000E+00   0.0000000E+00   0.0000000E+00   0.0000000E+00
   0.2460100E+00   0.7562000E-01  -0.1797050E+01   0.0000000E+00   0.0000000E+00   0.0000000E+00   0.0000000E+00
   0.2344900E+00   0.1060800E+00  -0.1797050E+01   0.0000000E+00   0.0000000E+00   0.0000000E+00   0.0000000E+00
   0.2407700E+00   0.9093000E-01  -0.1797050E+01   0.0000000E+00   0.0000000E+00   0.0000000E+00   0.0000000E+00
   0.0000000E+00   0.0000000E+00  -0.1800000E+01   0.0000000E+00   0.0000000E+00   0.0000000E+00   0.0000000E+00
   0.2407700E+00   0.9093000E-01  -0.1797050E+01   0.0000000E+00   0.0000000E+00   0.0000000E+00   0.0000000E+00
   0.2271600E+00   0.1209700E+00  -0.1797050E+01   0.0000000E+00   0.0000000E+00   0.0000000E+00   0.0000000E+00
   0.2344900E+00   0.1060800E+00  -0.1797050E+01   0.0000000E+00   0.0000000E+00   0.0000000E+00   0.0000000E+00
   0.0000000E+00   0.0000000E+00  -0.1800000E+01   0.0000000E+00   0.0000000E+00   0.0000000E+00   0.0000000E+00
   0.2344900E+00   0.1060800E+00  -0.1797050E+01   0.0000000E+00   0.0000000E+00   0.0000000E+00   0.0000000E+00
   0.2188100E+00   0.1355000E+00  -0.1797050E+01   0.0000000E+00   0.0000000E+00   0.0000000E+00   0.0000000E+00
   0.2271600E+00   0.1209700E+00  -0.1797050E+01   0.0000000E+00   0.0000000E+00   0.0000000E+00   0.0000000E+00
   0.0000000E+00   0.0000000E+00  -0.1800000E+01   0.0000000E+00   0.0000000E+00   0.0000000E+00   0.0000000E+00
   0.2271600E+00   0.1209700E+00  -0.1797050E+01   0.0000000E+00   0.0000000E+00   0.0000000E+00   0.0000000E+00
   0.2094500E+00   0.1495600E+00  -0.1797050E+01   0.0000000E+00   0.0000000E+00   0.0000000E+00   0.0000000E+00
   0.2188100E+00   0.1355000E+00  -0.1797050E+01   0.0000000E+00   0.0000000E+00   0.0000000E+00   0.0000000E+00
   0.0000000E+00   0.0000000E+00  -0.1800000E+01   0.0000000E+00   0.0000000E+00   0.0000000E+00   0.0000000E+00
   0.2188100E+00   0.1355000E+00  -0.1797050E+01   0.0000000E+00   0.0000000E+00   0.0000000E+00   0.0000000E+00
   0.1991300E+00   0.1630400E+00  -0.1797050E+01   0.0000000E+00   0.0000000E+00   0.0000000E+00   0.0000000E+00
   0.2094500E+00   0.1495600E+00  -0.1797050E+01   0.0000000E+00   0.0000000E+00   0.0000000E+00   0.0000000E+00
   0.0000000E+00   0.0000000E+00  -0.1800000E+01   0.0000000E+00   0.0000000E+00   0.0000000E+00   0.0000000E+00
   0.2094500E+00   0.1495600E+00  -0.1797050E+01   0.0000000E+00   0.0000000E+00   0.0000000E+00   0.0000000E+00
   0.1879100E+00   0.1758600E+00  -0.1797050E+01   0.0000000E+00   0.0000000E+00   0.0000000E+00   0.0000000E+00
   0.1991300E+00   0.1630400E+00  -0.1797050E+01   0.0000000E+00   0.0000000E+00   0.0000000E+00   0.0000000E+00
   0.0000000E+00   0.0000000E+00  -0.1800000E+01   0.0000000E+00   0.0000000E+00   0.0000000E+00   0.0000000E+00
   0.1991300E+00   0.1630400E+00  -0.1797050E+01   0.0000000E+00   0.0000000E+00   0.0000000E+00   0.0000000E+00
   0.1758600E+00   0.1879100E+00  -0.1797050E+01   0.0000000E+00   0.0000000E+00   0.0000000E+00   0.0000000E+00
   0.1879100E+00   0.1758600E+00  -0.1797050E+01   0.0000000E+00   0.0000000E+00   0.0000000E+00   0.0000000E+00
   0.0000000E+00   0.0000000E+00  -0.1800000E+01   0.0000000E+00   0.0000000E+00   0.0000000E+00   0.0000000E+00
   0.1879100E+00   0.1758600E+00  -0.1797050E+01   0.0000000E+00   0.0000000E+00   0.0000000E+00   0.0000000E+00
   0.1630400E+00   0.1991300E+00  -0.1797050E+01   0.0000000E+00   0.0000000E+00   0.0000000E+00   0.0000000E+00
   0.1758600E+00   0.1879100E+00  -0.1797050E+01   0.0000000E+00   0.0000000E+00   0.0000000E+00   0.0000000E+00
   0.0000000E+00   0.0000000E+00  -0.1800000E+01   0.0000000E+00   0.0000000E+00   0.0000000E+00   0.0000000E+00
   0.1758600E+00   0.1879100E+00  -0.1797050E+01   0.0000000E+00   0.0000000E+00   0.0000000E+00   0.0000000E+00
   0.1495600E+00   0.2094500E+00  -0.1797050E+01   0.0000000E+00   0.0000000E+00   0.0000000E+00   0.0000000E+00
   0.1630400E+00   0.1991300E+00  -0.1797050E+01   0.0000000E+00   0.0000000E+00   0.0000000E+00   0.0000000E+00
   0.0000000E+00   0.0000000E+00  -0.1800000E+01   0.0000000E+00   0.0000000E+00   0.0000000E+00   0.0000000E+00
   0.1630400E+00   0.1991300E+00  -0.1797050E+01   0.0000000E+00   0.0000000E+00   0.0000000E+00   0.0000000E+00
   0.1355000E+00   0.2188100E+00  -0.1797050E+01   0.0000000E+00   0.0000000E+00   0.0000000E+00   0.0000000E+00
   0.1495600E+00   0.2094500E+00  -0.1797050E+01   0.0000000E+00   0.0000000E+00   0.0000000E+00   0.0000000E+00
   0.0000000E+00   0.0000000E+00  -0.1800000E+01   0.0000000E+00   0.0000000E+00   0.0000000E+00   0.0000000E+00
   0.1495600E+00   0.2094500E+00  -0.1797050E+01   0.0000000E+00   0.0000000E+00   0.0000000E+00   0.0000000E+00
   0.1209700E+00   0.2271600E+00  -0.1797050E+01   0.0000000E+00   0.0000000E+00   0.0000000E+00   0.0000000E+00
   0.1355000E+00   0.2188100E+00  -0.1797050E+01   0.0000000E+00   0.0000000E+00   0.0000000E+00   0.0000000E+00
   0.0000000E+00   0.0000000E+00  -0.1800000E+01   0.0000000E+00   0.0000000E+00   0.0000000E+00   0.0000000E+00
   0.1355000E+00   0.2188100E+00  -0.1797050E+01   0.0000000E+00   0.0000000E+00   0.0000000E+00   0.0000000E+00
   0.1060800E+00   0.2344900E+00  -0.1797050E+01   0.0000000E+00   0.0000000E+00   0.0000000E+00   0.0000000E+00
   0.1209700E+00   0.2271600E+00  -0.1797050E+01   0.0000000E+00   0.0000000E+00   0.0000000E+00   0.0000000E+00
   0.0000000E+00   0.0000000E+00  -0.1800000E+01   0.0000000E+00   0.0000000E+00   0.0000000E+00   0.0000000E+00
   0.1209700E+00   0.2271600E+00  -0.1797050E+01   0.0000000E+00   0.0000000E+00   0.0000000E+00   0.0000000E+00
   0.9093000E-01   0.2407700E+00  -0.1797050E+01   0.0000000E+00   0.0000000E+00   0.0000000E+00   0.0000000E+00
   0.1060800E+00   0.2344900E+00  -0.1797050E+01   0.0000000E+00   0.0000000E+00   0.0000000E+00   0.0000000E+00
   0.0000000E+00   0.0000000E+00  -0.1800000E+01   0.0000000E+00   0.0000000E+00   0.0000000E+00   0.0000000E+00
   0.1060800E+00   0.2344900E+00  -0.1797050E+01   0.0000000E+00   0.0000000E+00   0.0000000E+00   0.0000000E+00
   0.7562000E-01   0.2460100E+00  -0.1797050E+01   0.0000000E+00   0.0000000E+00   0.0000000E+00   0.0000000E+00
   0.9093000E-01   0.2407700E+00  -0.1797050E+01   0.0000000E+00   0.0000000E+00   0.0000000E+00   0.0000000E+00
   0.0000000E+00   0.0000000E+00  -0.1800000E+01   0.0000000E+00   0.0000000E+00   0.0000000E+00   0.0000000E+00
   0.9093000E-01   0.2407700E+00  -0.1797050E+01   0.0000000E+00   0.0000000E+00   0.0000000E+00   0.0000000E+00
   0.6025000E-01   0.2502100E+00  -0.1797050E+01   0.0000000E+00   0.0000000E+00   0.0000000E+00   0.0000000E+00
   0.7562000E-01   0.2460100E+00  -0.1797050E+01   0.0000000E+00   0.0000000E+00   0.0000000E+00   0.0000000E+00
   0.0000000E+00   0.0000000E+00  -0.1800000E+01   0.0000000E+00   0.0000000E+00   0.0000000E+00   0.0000000E+00
   0.7562000E-01   0.2460100E+00  -0.1797050E+01   0.0000000E+00   0.0000000E+00   0.0000000E+00   0.0000000E+00
   0.4492000E-01   0.2534100E+00  -0.1797050E+01   0.0000000E+00   0.0000000E+00   0.0000000E+00   0.0000000E+00
   0.6025000E-01   0.2502100E+00  -0.1797050E+01   0.0000000E+00   0.0000000E+00   0.0000000E+00   0.0000000E+00
   0.0000000E+00   0.0000000E+00  -0.1800000E+01   0.0000000E+00   0.0000000E+00   0.0000000E+00   0.0000000E+00
   0.6025000E-01   0.2502100E+00  -0.1797050E+01   0.0000000E+00   0.0000000E+00   0.0000000E+00   0.0000000E+00
   0.2972000E-01   0.2556400E+00  -0.1797050E+01   0.0000000E+00   0.0000000E+00   0.0000000E+00   0.0000000E+00
   0.4492000E-01   0.2534100E+00  -0.1797050E+01   0.0000000E+00   0.0000000E+00   0.0000000E+00   0.0000000E+00
   0.0000000E+00   0.0000000E+00  -0.1800000E+01   0.0000000E+00   0.0000000E+00   0.0000000E+00   0.0000000E+00
   0.4492000E-01   0.2534100E+00  -0.1797050E+01   0.0000000E+00   0.0000000E+00   0.0000000E+00   0.0000000E+00
   0.1472000E-01   0.2569400E+00  -0.1797050E+01   0.0000000E+00   0.0000000E+00   0.0000000E+00   0.0000000E+00
   0.2972000E-01   0.2556400E+00  -0.1797050E+01   0.0000000E+00   0.0000000E+00   0.0000000E+00   0.0000000E+00
   0.0000000E+00   0.0000000E+00  -0.1800000E+01   0.0000000E+00   0.0000000E+00   0.0000000E+00   0.0000000E+00
   0.2972000E-01   0.2556400E+00  -0.1797050E+01   0.0000000E+00   0.0000000E+00   0.0000000E+00   0.0000000E+00
   0.0000000E+00   0.2573700E+00  -0.1797050E+01   0.0000000E+00   0.0000000E+00   0.0000000E+00   0.0000000E+00
   0.1472000E-01   0.2569400E+00  -0.1797050E+01   0.0000000E+00   0.0000000E+00   0.0000000E+00   0.0000000E+00
   0.0000000E+00   0.0000000E+00  -0.1800000E+01   0.0000000E+00   0.0000000E+00   0.0000000E+00   0.0000000E+00
   0.1472000E-01   0.2569400E+00  -0.1797050E+01   0.0000000E+00   0.0000000E+00   0.0000000E+00   0.0000000E+00
  -0.1472000E-01   0.2569400E+00  -0.1797050E+01   0.0000000E+00   0.0000000E+00   0.0000000E+00   0.0000000E+00
   0.0000000E+00   0.2573700E+00  -0.1797050E+01   0.0000000E+00   0.0000000E+00   0.0000000E+00   0.0000000E+00
   0.0000000E+00   0.0000000E+00  -0.1800000E+01   0.0000000E+00   0.0000000E+00   0.0000000E+00   0.0000000E+00
   0.0000000E+00   0.2573700E+00  -0.1797050E+01   0.0000000E+00   0.0000000E+00   0.0000000E+00   0.0000000E+00
  -0.2972000E-01   0.2556400E+00  -0.1797050E+01   0.0000000E+00   0.0000000E+00   0.0000000E+00   0.0000000E+00
  -0.1472000E-01   0.2569400E+00  -0.1797050E+01   0.0000000E+00   0.0000000E+00   0.0000000E+00   0.0000000E+00
   0.0000000E+00   0.0000000E+00  -0.1800000E+01   0.0000000E+00   0.0000000E+00   0.0000000E+00   0.0000000E+00
  -0.1472000E-01   0.2569400E+00  -0.1797050E+01   0.0000000E+00   0.0000000E+00   0.0000000E+00   0.0000000E+00
  -0.4492000E-01   0.2534100E+00  -0.1797050E+01   0.0000000E+00   0.0000000E+00   0.0000000E+00   0.0000000E+00
  -0.2972000E-01   0.2556400E+00  -0.1797050E+01   0.0000000E+00   0.0000000E+00   0.0000000E+00   0.0000000E+00
   0.0000000E+00   0.0000000E+00  -0.1800000E+01   0.0000000E+00   0.0000000E+00   0.0000000E+00   0.0000000E+00
  -0.2972000E-01   0.2556400E+00  -0.1797050E+01   0.0000000E+00   0.0000000E+00   0.0000000E+00   0.0000000E+00
  -0.6025000E-01   0.2502100E+00  -0.1797050E+01   0.0000000E+00   0.0000000E+00   0.0000000E+00   0.0000000E+00
  -0.4492000E-01   0.2534100E+00  -0.1797050E+01   0.0000000E+00   0.0000000E+00   0.0000000E+00   0.0000000E+00
   0.0000000E+00   0.0000000E+00  -0.1800000E+01   0.0000000E+00   0.0000000E+00   0.0000000E+00   0.0000000E+00
  -0.4492000E-01   0.2534100E+00  -0.1797050E+01   0.0000000E+00   0.0000000E+00   0.0000000E+00   0.0000000E+00
  -0.7562000E-01   0.2460100E+00  -0.1797050E+01   0.0000000E+00   0.0000000E+00   0.0000000E+00   0.0000000E+00
  -0.6025000E-01   0.2502100E+00  -0.1797050E+01   0.0000000E+00   0.0000000E+00   0.0000000E+00   0.0000000E+00
   0.0000000E+00   0.0000000E+00  -0.1800000E+01   0.0000000E+00   0.0000000E+00   0.0000000E+00   0.0000000E+00
  -0.6025000E-01   0.2502100E+00  -0.1797050E+01   0.0000000E+00   0.0000000E+00   0.0000000E+00   0.0000000E+00
  -0.9093000E-01   0.2407700E+00  -0.1797050E+01   0.0000000E+00   0.0000000E+00   0.0000000E+00   0.0000000E+00
  -0.7562000E-01   0.2460100E+00  -0.1797050E+01   0.0000000E+00   0.0000000E+00   0.0000000E+00   0.0000000E+00
   0.0000000E+00   0.0000000E+00  -0.1800000E+01   0.0000000E+00   0.0000000E+00   0.0000000E+00   0.0000000E+00
  -0.7562000E-01   0.2460100E+00  -0.1797050E+01   0.0000000E+00   0.0000000E+00   0.0000000E+00   0.0000000E+00
  -0.1060800E+00   0.2344900E+00  -0.1797050E+01   0.0000000E+00   0.0000000E+00   0.0000000E+00   0.0000000E+00
  -0.9093000E-01   0.2407700E+00  -0.1797050E+01   0.0000000E+00   0.0000000E+00   0.0000000E+00   0.0000000E+00
   0.0000000E+00   0.0000000E+00  -0.1800000E+01   0.0000000E+00   0.0000000E+00   0.0000000E+00   0.0000000E+00
  -0.9093000E-01   0.2407700E+00  -0.1797050E+01   0.0000000E+00   0.0000000E+00   0.0000000E+00   0.0000000E+00
  -0.1209700E+00   0.2271600E+00  -0.1797050E+01   0.0000000E+00   0.0000000E+00   0.0000000E+00   0.0000000E+00
  -0.1060800E+00   0.2344900E+00  -0.1797050E+01   0.0000000E+00   0.0000000E+00   0.0000000E+00   0.0000000E+00
   0.0000000E+00   0.0000000E+00  -0.1800000E+01   0.0000000E+00   0.0000000E+00   0.0000000E+00   0.0000000E+00
  -0.1060800E+00   0.2344900E+00  -0.1797050E+01   0.0000000E+00   0.0000000E+00   0.0000000E+00   0.0000000E+00
  -0.1355000E+00   0.2188100E+00  -0.1797050E+01   0.0000000E+00   0.0000000E+00   0.0000000E+00   0.0000000E+00
  -0.1209700E+00   0.2271600E+00  -0.1797050E+01   0.0000000E+00   0.0000000E+00   0.0000000E+00   0.0000000E+00
   0.0000000E+00   0.0000000E+00  -0.1800000E+01   0.0000000E+00   0.0000000E+00   0.0000000E+00   0.0000000E+00
  -0.1209700E+00   0.2271600E+00  -0.1797050E+01   0.0000000E+00   0.0000000E+00   0.0000000E+00   0.0000000E+00
  -0.1495600E+00   0.2094500E+00  -0.1797050E+01   0.0000000E+00   0.0000000E+00   0.0000000E+00   0.0000000E+00
  -0.1355000E+00   0.2188100E+00  -0.1797050E+01   0.0000000E+00   0.0000000E+00   0.0000000E+00   0.0000000E+00
   0.0000000E+00   0.0000000E+00  -0.1800000E+01   0.0000000E+00   0.0000000E+00   0.0000000E+00   0.0000000E+00
  -0.1355000E+00   0.2188100E+00  -0.1797050E+01   0.0000000E+00   0.0000000E+00   0.0000000E+00   0.0000000E+00
  -0.1630400E+00   0.1991300E+00  -0.1797050E+01   0.0000000E+00   0.0000000E+00   0.0000000E+00   0.0000000E+00
  -0.1495600E+00   0.2094500E+00  -0.1797050E+01   0.0000000E+00   0.0000000E+00   0.0000000E+00   0.0000000E+00
   0.0000000E+00   0.0000000E+00  -0.1800000E+01   0.0000000E+00   0.0000000E+00   0.0000000E+00   0.0000000E+00
  -0.1495600E+00   0.2094500E+00  -0.1797050E+01   0.0000000E+00   0.0000000E+00   0.0000000E+00   0.0000000E+00
  -0.1758600E+00   0.1879100E+00  -0.1797050E+01   0.0000000E+00   0.0000000E+00   0.0000000E+00   0.0000000E+00
  -0.1630400E+00   0.1991300E+00  -0.1797050E+01   0.0000000E+00   0.0000000E+00   0.0000000E+00   0.0000000E+00
   0.0000000E+00   0.0000000E+00  -0.1800000E+01   0.0000000E+00   0.0000000E+00   0.0000000E+00   0.0000000E+00
  -0.1630400E+00   0.1991300E+00  -0.1797050E+01   0.0000000E+00   0.0000000E+00   0.0000000E+00   0.0000000E+00
  -0.1879100E+00   0.1758600E+00  -0.1797050E+01   0.0000000E+00   0.0000000E+00   0.0000000E+00   0.0000000E+00
  -0.1758600E+00   0.1879100E+00  -0.1797050E+01   0.0000000E+00   0.0000000E+00   0.0000000E+00   0.0000000E+00
   0.0000000E+00   0.0000000E+00  -0.1800000E+01   0.0000000E+00   0.0000000E+00   0.0000000E+00   0.0000000E+00
  -0.1758600E+00   0.1879100E+00  -0.1797050E+01   0.0000000E+00   0.0000000E+00   0.0000000E+00   0.0000000E+00
  -0.1991300E+00   0.1630400E+00  -0.1797050E+01   0.0000000E+00   0.0000000E+00   0.0000000E+00   0.0000000E+00
  -0.1879100E+00   0.1758600E+00  -0.1797050E+01   0.0000000E+00   0.0000000E+00   0.0000000E+00   0.0000000E+00
   0.0000000E+00   0.0000000E+00  -0.1800000E+01   0.0000000E+00   0.0000000E+00   0.0000000E+00   0.0000000E+00
  -0.1879100E+00   0.1758600E+00  -0.1797050E+01   0.0000000E+00   0.0000000E+00   0.0000000E+00   0.0000000E+00
  -0.2094500E+00   0.1495600E+00  -0.1797050E+01   0.0000000E+00   0.0000000E+00   0.0000000E+00   0.0000000E+00
  -0.1991300E+00   0.1630400E+00  -0.1797050E+01   0.0000000E+00   0.0000000E+00   0.0000000E+00   0.0000000E+00
   0.0000000E+00   0.0000000E+00  -0.1800000E+01   0.0000000E+00   0.0000000E+00   0.0000000E+00   0.0000000E+00
  -0.1991300E+00   0.1630400E+00  -0.1797050E+01   0.0000000E+00   0.0000000E+00   0.0000000E+00   0.0000000E+00
  -0.2188100E+00   0.1355000E+00  -0.1797050E+01   0.0000000E+00   0.0000000E+00   0.0000000E+00   0.0000000E+00
  -0.2094500E+00   0.1495600E+00  -0.1797050E+01   0.0000000E+00   0.0000000E+00   0.0000000E+00   0.0000000E+00
   0.0000000E+00   0.0000000E+00  -0.1800000E+01   0.0000000E+00   0.0000000E+00   0.0000000E+00   0.0000000E+00
  -0.2094500E+00   0.1495600E+00  -0.1797050E+01   0.0000000E+00   0.0000000E+00   0.0000000E+00   0.0000000E+00
  -0.2271600E+00   0.1209700E+00  -0.1797050E+01   0.0000000E+00   0.0000000E+00   0.0000000E+00   0.0000000E+00
  -0.2188100E+00   0.1355000E+00  -0.1797050E+01   0.0000000E+00   0.0000000E+00   0.0000000E+00   0.0000000E+00
   0.0000000E+00   0.0000000E+00  -0.1800000E+01   0.0000000E+00   0.0000000E+00   0.0000000E+00   0.0000000E+00
  -0.2188100E+00   0.1355000E+00  -0.1797050E+01   0.0000000E+00   0.0000000E+00   0.0000000E+00   0.0000000E+00
  -0.2344900E+00   0.1060800E+00  -0.1797050E+01   0.0000000E+00   0.0000000E+00   0.0000000E+00   0.0000000E+00
  -0.2271600E+00   0.1209700E+00  -0.1797050E+01   0.0000000E+00   0.0000000E+00   0.0000000E+00   0.0000000E+00
   0.0000000E+00   0.0000000E+00  -0.1800000E+01   0.0000000E+00   0.0000000E+00   0.0000000E+00   0.0000000E+00
  -0.2271600E+00   0.1209700E+00  -0.1797050E+01   0.0000000E+00   0.0000000E+00   0.0000000E+00   0.0000000E+00
  -0.2407700E+00   0.9093000E-01  -0.1797050E+01   0.0000000E+00   0.0000000E+00   0.0000000E+00   0.0000000E+00
  -0.2344900E+00   0.1060800E+00  -0.1797050E+01   0.0000000E+00   0.0000000E+00   0.0000000E+00   0.0000000E+00
   0.0000000E+00   0.0000000E+00  -0.1800000E+01   0.0000000E+00   0.0000000E+00   0.0000000E+00   0.0000000E+00
  -0.2344900E+00   0.1060800E+00  -0.1797050E+01   0.0000000E+00   0.0000000E+00   0.0000000E+00   0.0000000E+00
  -0.2460100E+00   0.7562000E-01  -0.1797050E+01   0.0000000E+00   0.0000000E+00   0.0000000E+00   0.0000000E+00
  -0.2407700E+00   0.9093000E-01  -0.1797050E+01   0.0000000E+00   0.0000000E+00   0.0000000E+00   0.0000000E+00
   0.0000000E+00   0.0000000E+00  -0.1800000E+01   0.0000000E+00   0.0000000E+00   0.0000000E+00   0.0000000E+00
  -0.2407700E+00   0.9093000E-01  -0.1797050E+01   0.0000000E+00   0.0000000E+00   0.0000000E+00   0.0000000E+00
  -0.2502100E+00   0.6025000E-01  -0.1797050E+01   0.0000000E+00   0.0000000E+00   0.0000000E+00   0.0000000E+00
  -0.2460100E+00   0.7562000E-01  -0.1797050E+01   0.0000000E+00   0.0000000E+00   0.0000000E+00   0.0000000E+00
   0.0000000E+00   0.0000000E+00  -0.1800000E+01   0.0000000E+00   0.0000000E+00   0.0000000E+00   0.0000000E+00
  -0.2460100E+00   0.7562000E-01  -0.1797050E+01   0.0000000E+00   0.0000000E+00   0.0000000E+00   0.0000000E+00
  -0.2534100E+00   0.4492000E-01  -0.1797050E+01   0.0000000E+00   0.0000000E+00   0.0000000E+00   0.0000000E+00
  -0.2502100E+00   0.6025000E-01  -0.1797050E+01   0.0000000E+00   0.0000000E+00   0.0000000E+00   0.0000000E+00
   0.0000000E+00   0.0000000E+00  -0.1800000E+01   0.0000000E+00   0.0000000E+00   0.0000000E+00   0.0000000E+00
  -0.2502100E+00   0.6025000E-01  -0.1797050E+01   0.0000000E+00   0.0000000E+00   0.0000000E+00   0.0000000E+00
  -0.2556400E+00   0.2972000E-01  -0.1797050E+01   0.0000000E+00   0.0000000E+00   0.0000000E+00   0.0000000E+00
  -0.2534100E+00   0.4492000E-01  -0.1797050E+01   0.0000000E+00   0.0000000E+00   0.0000000E+00   0.0000000E+00
   0.0000000E+00   0.0000000E+00  -0.1800000E+01   0.0000000E+00   0.0000000E+00   0.0000000E+00   0.0000000E+00
  -0.2534100E+00   0.4492000E-01  -0.1797050E+01   0.0000000E+00   0.0000000E+00   0.0000000E+00   0.0000000E+00
  -0.2569400E+00   0.1472000E-01  -0.1797050E+01   0.0000000E+00   0.0000000E+00   0.0000000E+00   0.0000000E+00
  -0.2556400E+00   0.2972000E-01  -0.1797050E+01   0.0000000E+00   0.0000000E+00   0.0000000E+00   0.0000000E+00
   0.0000000E+00   0.0000000E+00  -0.1800000E+01   0.0000000E+00   0.0000000E+00   0.0000000E+00   0.0000000E+00
  -0.2556400E+00   0.2972000E-01  -0.1797050E+01   0.0000000E+00   0.0000000E+00   0.0000000E+00   0.0000000E+00
   0.2556400E+00   0.2972000E-01  -0.1797050E+01   0.0000000E+00   0.0000000E+00   0.0000000E+00   0.0000000E+00
   0.5161100E+00   0.5999000E-01  -0.1787960E+01   0.0000000E+00   0.0000000E+00   0.0000000E+00   0.0000000E+00
   0.2569400E+00   0.1472000E-01  -0.1797050E+01   0.0000000E+00   0.0000000E+00   0.0000000E+00   0.0000000E+00
   0.5187400E+00   0.2972000E-01  -0.1787960E+01   0.0000000E+00   0.0000000E+00   0.0000000E+00   0.0000000E+00
   0.2534100E+00   0.4492000E-01  -0.1797050E+01   0.0000000E+00   0.0000000E+00   0.0000000E+00   0.0000000E+00
   0.5116100E+00   0.9069000E-01  -0.1787960E+01   0.0000000E+00   0.0000000E+00   0.0000000E+00   0.0000000E+00
   0.2556400E+00   0.2972000E-01  -0.1797050E+01   0.0000000E+00   0.0000000E+00   0.0000000E+00   0.0000000E+00
   0.5161100E+00   0.5999000E-01  -0.1787960E+01   0.0000000E+00   0.0000000E+00   0.0000000E+00   0.0000000E+00
   0.2502100E+00   0.6025000E-01  -0.1797050E+01   0.0000000E+00   0.0000000E+00   0.0000000E+00   0.0000000E+00
   0.5051500E+00   0.1216400E+00  -0.1787960E+01   0.0000000E+00   0.0000000E+00   0.0000000E+00   0.0000000E+00
   0.2534100E+00   0.4492000E-01  -0.1797050E+01   0.0000000E+00   0.0000000E+00   0.0000000E+00   0.0000000E+00
   0.5116100E+00   0.9069000E-01  -0.1787960E+01   0.0000000E+00   0.0000000E+00   0.0000000E+00   0.0000000E+00
   0.2460100E+00   0.7562000E-01  -0.1797050E+01   0.0000000E+00   0.0000000E+00   0.0000000E+00   0.0000000E+00
   0.4966600E+00   0.1526600E+00  -0.1787960E+01   0.0000000E+00   0.0000000E+00   0.0000000E+00   0.0000000E+00
   0.2502100E+00   0.6025000E-01  -0.1797050E+01   0.0000000E+00   0.0000000E+00   0.0000000E+00   0.0000000E+00
   0.5051500E+00   0.1216400E+00  -0.1787960E+01   0.0000000E+00   0.0000000E+00   0.0000000E+00   0.0000000E+00
   0.2407700E+00   0.9093000E-01  -0.1797050E+01   0.0000000E+00   0.0000000E+00   0.0000000E+00   0.0000000E+00
   0.4860800E+00   0.1835700E+00  -0.1787960E+01   0.0000000E+00   0.0000000E+00   0.0000000E+00   0.0000000E+00
   0.2460100E+00   0.7562000E-01  -0.1797050E+01   0.0000000E+00   0.0000000E+00   0.0000000E+00   0.0000000E+00
   0.4966600E+00   0.1526600E+00  -0.1787960E+01   0.0000000E+00   0.0000000E+00   0.0000000E+00   0.0000000E+00
   0.2344900E+00   0.1060800E+00  -0.1797050E+01   0.0000000E+00   0.0000000E+00   0.0000000E+00   0.0000000E+00
   0.4734000E+00   0.2141700E+00  -0.1787960E+01   0.0000000E+00   0.0000000E+00   0.0000000E+00   0.0000000E+00
   0.2407700E+00   0.9093000E-01  -0.1797050E+01   0.0000000E+00   0.0000000E+00   0.0000000E+00   0.0000000E+00
   0.4860800E+00   0.1835700E+00  -0.1787960E+01   0.0000000E+00   0.0000000E+00   0.0000000E+00   0.0000000E+00
   0.2271600E+00   0.1209700E+00  -0.1797050E+01   0.0000000E+00   0.0000000E+00   0.0000000E+00   0.0000000E+00
   0.4586100E+00   0.2442300E+00  -0.1787960E+01   0.0000000E+00   0.0000000E+00   0.0000000E+00   0.0000000E+00
   0.2344900E+00   0.1060800E+00  -0.1797050E+01   0.0000000E+00   0.0000000E+00   0.0000000E+00   0.0000000E+00
   0.4734000E+00   0.2141700E+00  -0.1787960E+01   0.0000000E+00   0.0000000E+00   0.0000000E+00   0.0000000E+00
   0.2188100E+00   0.1355000E+00  -0.1797050E+01   0.0000000E+00   0.0000000E+00   0.0000000E+00   0.0000000E+00
   0.4417400E+00   0.2735600E+00  -0.1787960E+01   0.0000000E+00   0.0000000E+00   0.0000000E+00   0.0000000E+00
   0.2271600E+00   0.1209700E+00  -0.1797050E+01   0.0000000E+00   0.0000000E+00   0.0000000E+00   0.0000000E+00
   0.4586100E+00   0.2442300E+00  -0.1787960E+01   0.0000000E+00   0.0000000E+00   0.0000000E+00   0.0000000E+00
   0.2094500E+00   0.1495600E+00  -0.1797050E+01   0.0000000E+00   0.0000000E+00   0.0000000E+00   0.0000000E+00
   0.4228600E+00   0.3019400E+00  -0.1787960E+01   0.0000000E+00   0.0000000E+00   0.0000000E+00   0.0000000E+00
   0.2188100E+00   0.1355000E+00  -0.1797050E+01   0.0000000E+00   0.0000000E+00   0.0000000E+00   0.0000000E+00
   0.4417400E+00   0.2735600E+00  -0.1787960E+01   0.0000000E+00   0.0000000E+00   0.0000000E+00   0.0000000E+00
   0.1991300E+00   0.1630400E+00  -0.1797050E+01   0.0000000E+00   0.0000000E+00   0.0000000E+00   0.0000000E+00
   0.4020300E+00   0.3291600E+00  -0.1787960E+01   0.0000000E+00   0.0000000E+00   0.0000000E+00   0.0000000E+00
   0.2094500E+00   0.1495600E+00  -0.1797050E+01   0.0000000E+00   0.0000000E+00   0.0000000E+00   0.0000000E+00
   0.4228600E+00   0.3019400E+00  -0.1787960E+01   0.0000000E+00   0.0000000E+00   0.0000000E+00   0.0000000E+00
   0.1879100E+00   0.1758600E+00  -0.1797050E+01   0.0000000E+00   0.0000000E+00   0.0000000E+00   0.0000000E+00
   0.3793700E+00   0.3550300E+00  -0.1787960E+01   0.0000000E+00   0.0000000E+00   0.0000000E+00   0.0000000E+00
   0.1991300E+00   0.1630400E+00  -0.1797050E+01   0.0000000E+00   0.0000000E+00   0.0000000E+00   0.0000000E+00
   0.4020300E+00   0.3291600E+00  -0.1787960E+01   0.0000000E+00   0.0000000E+00   0.0000000E+00   0.0000000E+00
   0.1758600E+00   0.1879100E+00  -0.1797050E+01   0.0000000E+00   0.0000000E+00   0.0000000E+00   0.0000000E+00
   0.3550300E+00   0.3793700E+00  -0.1787960E+01   0.0000000E+00   0.0000000E+00   0.0000000E+00   0.0000000E+00
   0.1879100E+00   0.1758600E+00  -0.1797050E+01   0.0000000E+00   0.0000000E+00   0.0000000E+00   0.0000000E+00
   0.3793700E+00   0.3550300E+00  -0.1787960E+01   0.0000000E+00   0.0000000E+00   0.0000000E+00   0.0000000E+00
   0.1630400E+00   0.1991300E+00  -0.1797050E+01   0.0000000E+00   0.0000000E+00   0.0000000E+00   0.0000000E+00
   0.3291600E+00   0.4020300E+00  -0.1787960E+01   0.0000000E+00   0.0000000E+00   0.0000000E+00   0.0000000E+00
   0.1758600E+00   0.1879100E+00  -0.1797050E+01   0.0000000E+00   0.0000000E+00   0.0000000E+00   0.0000000E+00
   0.3550300E+00   0.3793700E+00  -0.1787960E+01   0.0000000E+00   0.0000000E+00   0.0000000E+00   0.0000000E+00
   0.1495600E+00   0.2094500E+00  -0.1797050E+01   0.0000000E+00   0.0000000E+00   0.0000000E+00   0.0000000E+00
   0.3019400E+00   0.4228600E+00  -0.1787960E+01   0.0000000E+00   0.0000000E+00   0.0000000E+00   0.0000000E+00
   0.1630400E+00   0.1991300E+00  -0.1797050E+01   0.0000000E+00   0.0000000E+00   0.0000000E+00   0.0000000E+00
   0.3291600E+00   0.4020300E+00  -0.1787960E+01   0.0000000E+00   0.0000000E+00   0.0000000E+00   0.0000000E+00
   0.1355000E+00   0.2188100E+00  -0.1797050E+01   0.0000000E+00   0.0000000E+00   0.0000000E+00   0.0000000E+00
   0.2735600E+00   0.4417400E+00  -0.1787960E+01   0.0000000E+00   0.0000000E+00   0.0000000E+00   0.0000000E+00
   0.1495600E+00   0.2094500E+00  -0.1797050E+01   0.0000000E+00   0.0000000E+00   0.0000000E+00   0.0000000E+00
   0.3019400E+00   0.4228600E+00  -0.1787960E+01   0.0000000E+00   0.0000000E+00   0.0000000E+00   0.0000000E+00
   0.1209700E+00   0.2271600E+00  -0.1797050E+01   0.0000000E+00   0.0000000E+00   0.0000000E+00   0.0000000E+00
   0.2442300E+00   0.4586100E+00  -0.1787960E+01   0.0000000E+00   0.0000000E+00   0.0000000E+00   0.0000000E+00
   0.1355000E+00   0.2188100E+00  -0.1797050E+01   0.0000000E+00   0.0000000E+00   0.0000000E+00   0.0000000E+00
   0.2735600E+00   0.4417400E+00  -0.1787960E+01   0.0000000E+00   0.0000000E+00   0.0000000E+00   0.0000000E+00
   0.1060800E+00   0.2344900E+00  -0.1797050E+01   0.0000000E+00   0.0000000E+00   0.0000000E+00   0.0000000E+00
   0.2141700E+00   0.4734000E+00  -0.1787960E+01   0.0000000E+00   0.0000000E+00   0.0000000E+00   0.0000000E+00
   0.1209700E+00   0.2271600E+00  -0.1797050E+01   0.0000000E+00   0.0000000E+00   0.0000000E+00   0.0000000E+00
   0.2442300E+00   0.4586100E+00  -0.1787960E+01   0.0000000E+00   0.0000000E+00   0.0000000E+00   0.0000000E+00
   0.9093000E-01   0.2407700E+00  -0.1797050E+01   0.0000000E+00   0.0000000E+00   0.0000000E+00   0.0000000E+00
   0.1835700E+00   0.4860800E+00  -0.1787960E+01   0.0000000E+00   0.0000000E+00   0.0000000E+00   0.0000000E+00
   0.1060800E+00   0.2344900E+00  -0.1797050E+01   0.0000000E+00   0.0000000E+00   0.0000000E+00   0.0000000E+00
   0.2141700E+00   0.4734000E+00  -0.1787960E+01   0.0000000E+00   0.0000000E+00   0.0000000E+00   0.0000000E+00