VARIABLES="w (rad/s)"
"abs(F   1   1)" "angle(F   1   1)"
"abs(F   1   2)" "angle(F   1   2)"
"abs(F   1   3)" "angle(F   1   3)"
"abs(F   1   4)" "angle(F   1   4)"
"abs(F   1   5)" "angle(F   1   5)"
"abs(F   1   6)" "angle(F   1   6)"
Zone t="Diffraction force - beta =   0.000 deg",I=   308,F=POINT
  0.3000000E-01  0.1810274E+02 -0.1570796E+01  0.2074414E-04  0.4523257E-02  0.1791407E+03 -0.3140655E+01  0.4370117E-04 -0.3137977E+01  0.6414339E+02 -0.1570796E+01  0.6783938E-11 -0.1799008E+01
  0.6000000E-01  0.7234716E+02 -0.1570797E+01  0.2153905E-03 -0.1689556E-02  0.7195256E+03 -0.3137867E+01  0.8015753E-03 -0.2642230E-02  0.2562655E+03 -0.1570797E+01  0.2479292E-10  0.1835239E+01
  0.9000000E-01  0.1623211E+03 -0.1570796E+01  0.1488822E-03 -0.1275830E-01  0.1627833E+04 -0.3133293E+01  0.1968596E-03 -0.7094016E-01  0.5752879E+03 -0.1570796E+01  0.2185154E-10 -0.1780436E+01
  0.1200000E+00  0.2882829E+03 -0.1570796E+01  0.8513546E-04 -0.5833957E-01  0.2910937E+04 -0.3127008E+01  0.3615937E-02 -0.4411381E-02  0.1019971E+04 -0.1570796E+01  0.6587286E-10  0.1786470E+01
  0.1500000E+00  0.4489721E+03 -0.1570795E+01  0.6742984E-04  0.6180539E-01  0.4577123E+04 -0.3119113E+01  0.5113744E-02  0.3116009E+01  0.1587399E+04 -0.1570795E+01  0.2132770E-09 -0.1572929E+01
  0.1800000E+00  0.6435362E+03 -0.1570792E+01  0.4699020E-03  0.3067256E+01  0.6635169E+04 -0.3109728E+01  0.7687256E-02 -0.2572281E-01  0.2275082E+04 -0.1570792E+01  0.4952572E-10 -0.5293963E+00
  0.2100000E+00  0.8746955E+03 -0.1570786E+01  0.3674174E-03  0.3740013E+00  0.9086907E+04 -0.3098949E+01  0.4555396E-02 -0.4591214E-01  0.3088746E+04 -0.1570786E+01  0.1273293E-10  0.0000000E+00
  0.2400000E+00  0.1135532E+04 -0.1570774E+01  0.2699473E-02 -0.3122334E+01  0.1193888E+05 -0.3086915E+01  0.1948067E-01 -0.7238059E-04  0.4000901E+04 -0.1570773E+01  0.4415585E-09  0.1525467E+01
  0.2700000E+00  0.1429275E+04 -0.1570750E+01  0.4047253E-02  0.6511071E-01  0.1518380E+05 -0.3073707E+01  0.1100448E-01 -0.2570736E-01  0.5034481E+04 -0.1570750E+01  0.2332849E-09 -0.1508378E+01
  0.3000000E+00  0.1752715E+04 -0.1570709E+01  0.2693634E-02 -0.1931062E-01  0.1883225E+05 -0.3059508E+01  0.1182797E-02 -0.1972701E+01  0.6155027E+04 -0.1570709E+01  0.3182192E-09 -0.1421624E+01
  0.3300000E+00  0.2110026E+04 -0.1570644E+01  0.3152015E-02  0.8259592E-01  0.2286231E+05 -0.3044357E+01  0.1887665E-01  0.3111143E+01  0.7398657E+04 -0.1570644E+01  0.2066375E-09  0.1680430E+00
  0.3600000E+00  0.2484093E+04 -0.1570541E+01  0.8069440E-02  0.3751173E-01  0.2728125E+05 -0.3028446E+01  0.1946264E-02  0.1230924E+01  0.8693646E+04 -0.1570539E+01  0.7841954E-09  0.2037556E+01
  0.3900000E+00  0.2898371E+04 -0.1570388E+01  0.7007100E-02 -0.3086459E+01  0.3207605E+05 -0.3011877E+01  0.1388593E-01 -0.1334568E+00  0.1010496E+05 -0.1570384E+01  0.6646658E-09 -0.1483110E+01
  0.4200000E+00  0.3329790E+04 -0.1570167E+01  0.1567359E-01 -0.3101992E+01  0.3721861E+05 -0.2994696E+01  0.2539211E-01  0.3080020E+01  0.1159321E+05 -0.1570161E+01  0.5897566E-09 -0.1533776E+01
  0.4500000E+00  0.3774868E+04 -0.1569853E+01  0.2374382E-02 -0.3013075E+01  0.4270850E+05 -0.2977087E+01  0.1519900E-01 -0.2888842E+01  0.1310461E+05 -0.1569842E+01  0.4005909E-09 -0.2168874E+01
  0.4800000E+00  0.4255317E+04 -0.1569426E+01  0.5442073E-02 -0.2983797E+01  0.4853481E+05 -0.2959182E+01  0.6454328E-01  0.3077735E+01  0.1470854E+05 -0.1569406E+01  0.1369447E-09  0.2845047E+01
  0.5100000E+00  0.4756376E+04 -0.1568853E+01  0.2083880E-01 -0.2993427E+01  0.5464688E+05 -0.2940944E+01  0.4133452E-01  0.3246833E-01  0.1638641E+05 -0.1568821E+01  0.1172333E-08 -0.1294202E+01
  0.5400000E+00  0.5253437E+04 -0.1568092E+01  0.5245414E-02 -0.2754918E+01  0.6103933E+05 -0.2922549E+01  0.6162189E-01  0.2965834E+01  0.1805625E+05 -0.1568044E+01  0.8274142E-09 -0.2168555E+01
  0.5700000E+00  0.5767312E+04 -0.1567109E+01  0.1083125E-01  0.3015085E+01  0.6769326E+05 -0.2904108E+01  0.2958161E-01 -0.2786506E+01  0.1973302E+05 -0.1567032E+01  0.1072556E-08 -0.1645487E+01
  0.6000000E+00  0.6305703E+04 -0.1565870E+01  0.3479903E-02  0.2015048E+01  0.7458750E+05 -0.2885713E+01  0.2018552E-01  0.2520152E+01  0.2146287E+05 -0.1565748E+01  0.6621121E-09 -0.1570796E+01
  0.6299999E+00  0.6856094E+04 -0.1564320E+01  0.3476925E-02 -0.1506878E+01  0.8168005E+05 -0.2867368E+01  0.5540776E-01 -0.2996548E+01  0.2322486E+05 -0.1564140E+01  0.2300860E-09 -0.9652517E+00
  0.6600000E+00  0.7395578E+04 -0.1562392E+01  0.1146681E-01 -0.3107908E+01  0.8892729E+05 -0.2849068E+01  0.1233589E+00  0.3130989E+01  0.2495258E+05 -0.1562137E+01  0.1316607E-08  0.1920512E+01
  0.6899999E+00  0.7917938E+04 -0.1560017E+01  0.4103710E-02  0.2740141E+01  0.9633167E+05 -0.2831017E+01  0.6235963E-01 -0.5048463E+00  0.2658990E+05 -0.1559654E+01  0.1504206E-08  0.1141767E+01
  0.7200000E+00  0.8448198E+04 -0.1557168E+01  0.9122888E-02 -0.8847482E-01  0.1038799E+06 -0.2813332E+01  0.9791748E-01 -0.1613886E+00  0.2819256E+05 -0.1556647E+01  0.1906523E-08 -0.9425612E+00
  0.7500000E+00  0.8985900E+04 -0.1553799E+01  0.9068423E-02 -0.2855573E+01  0.1115151E+06 -0.2795914E+01  0.8697250E-01 -0.5660332E-01  0.2977496E+05 -0.1553058E+01  0.1101437E-08 -0.1303385E+01
  0.7800000E+00  0.9513992E+04 -0.1549831E+01  0.1183017E-01  0.1530226E+01  0.1192096E+06 -0.2778802E+01  0.3011591E-01  0.1383509E+01  0.3130302E+05 -0.1548808E+01  0.8885014E-09  0.2122451E+01
  0.8100000E+00  0.1001199E+05 -0.1545168E+01  0.1564127E-01  0.2539827E+01  0.1269425E+06 -0.2762061E+01  0.2539969E-01  0.1824353E+01  0.3272174E+05 -0.1543791E+01  0.3086927E-09 -0.2356194E+01
  0.8400000E+00  0.1046010E+05 -0.1539689E+01  0.2851926E-01 -0.2807193E+01  0.1346828E+06 -0.2745706E+01  0.3682770E-01  0.1655204E+01  0.3396077E+05 -0.1537867E+01  0.1197332E-08  0.1854104E+01
  0.8700000E+00  0.1087148E+05 -0.1533380E+01  0.1236106E-01 -0.2794694E+00  0.1424132E+06 -0.2729809E+01  0.2946716E-01  0.8034907E-01  0.3500450E+05 -0.1530937E+01  0.1164881E-08  0.2267988E+00
  0.9000000E+00  0.1125578E+05 -0.1526252E+01  0.2943588E-01 -0.2475063E+01  0.1501221E+06 -0.2714445E+01  0.6624022E-01 -0.3009173E+01  0.3588424E+05 -0.1522968E+01  0.9426228E-09  0.2986596E+01
  0.9299999E+00  0.1160534E+05 -0.1518264E+01  0.1613531E-01 -0.5134306E+00  0.1577842E+06 -0.2699617E+01  0.6948923E-01 -0.2974954E+01  0.3659121E+05 -0.1513889E+01  0.4299592E-08 -0.1345520E+01
  0.9600000E+00  0.1190218E+05 -0.1509335E+01  0.1550025E-01  0.3080636E+01  0.1653652E+06 -0.2685271E+01  0.2655113E-01 -0.2769247E+01  0.3708358E+05 -0.1503579E+01  0.1505824E-08  0.2287808E+01
  0.9899999E+00  0.1212896E+05 -0.1499364E+01  0.2384979E-01  0.2314420E+01  0.1728298E+06 -0.2671337E+01  0.1797154E+00  0.2845328E+01  0.3730961E+05 -0.1491866E+01  0.2558821E-08 -0.3361380E+00
  0.1020000E+01  0.1226488E+05 -0.1488207E+01  0.2711906E-01  0.9633431E+00  0.1801643E+06 -0.2657860E+01  0.9763996E-01 -0.1980893E+01  0.3720818E+05 -0.1478505E+01  0.2286087E-08  0.1948939E+01
  0.1050000E+01  0.1229248E+05 -0.1475693E+01  0.1035560E-01  0.4550038E+00  0.1873574E+06 -0.2644906E+01  0.2070618E+00 -0.2635286E+01  0.3671731E+05 -0.1463148E+01  0.3494399E-08 -0.1604117E+01
  0.1080000E+01  0.1221251E+05 -0.1461873E+01  0.1445057E-01 -0.2830997E+01  0.1943985E+06 -0.2632561E+01  0.6731538E-01  0.2598142E+01  0.3580163E+05 -0.1445473E+01  0.7836445E-09 -0.2878598E+01
  0.1110000E+01  0.1203077E+05 -0.1446916E+01  0.1981324E-01 -0.5526450E+00  0.2012664E+06 -0.2620813E+01  0.1192217E+00 -0.1680383E+00  0.3446832E+05 -0.1425259E+01  0.1957760E-08 -0.7328151E+00
  0.1140000E+01  0.1173497E+05 -0.1430757E+01  0.4438030E-01 -0.5031467E+00  0.2079384E+06 -0.2609596E+01  0.7750515E-01  0.7995465E+00  0.3269996E+05 -0.1401981E+01  0.2709784E-08 -0.4204054E+00
  0.1170000E+01  0.1130738E+05 -0.1413224E+01  0.4134968E-01 -0.2160596E+01  0.2144001E+06 -0.2598910E+01  0.1445474E-01 -0.1592335E+01  0.3046063E+05 -0.1374699E+01  0.2497000E-08  0.2430438E+01
  0.1200000E+01  0.1073018E+05 -0.1394013E+01  0.1937729E-01 -0.2754392E+01  0.2206358E+06 -0.2588755E+01  0.2496674E-01  0.2877353E+01  0.2770710E+05 -0.1341691E+01  0.2317549E-08 -0.2186666E+01
  0.1230000E+01  0.9994233E+04 -0.1372869E+01  0.3338420E-01  0.2857275E+01  0.2266297E+06 -0.2579150E+01  0.1300481E+00  0.8426171E+00  0.2440840E+05 -0.1299866E+01  0.2342994E-08  0.1458767E+01
  0.1260000E+01  0.9095252E+04 -0.1349733E+01  0.1802951E-01  0.4332279E+00  0.2323655E+06 -0.2570096E+01  0.8237690E-01  0.5111520E+00  0.2055541E+05 -0.1243373E+01  0.2346426E-08  0.5191461E+00
  0.1290000E+01  0.8027733E+04 -0.1324006E+01  0.3920896E-01 -0.2900605E+01  0.2378248E+06 -0.2561524E+01  0.1122455E+00 -0.1567443E+01  0.1616625E+05 -0.1158158E+01  0.2772665E-08  0.6812982E+00
  0.1320000E+01  0.6779023E+04 -0.1294023E+01  0.2828585E-01  0.6509320E+00  0.2429939E+06 -0.2553417E+01  0.8569304E-01 -0.1509744E+01  0.1133075E+05 -0.1001737E+01  0.3546371E-08 -0.1165905E+01
  0.1350000E+01  0.5338486E+04 -0.1255621E+01  0.2165782E-01 -0.6222751E+00  0.2478612E+06 -0.2545781E+01  0.1767748E+00 -0.5330089E+00  0.6553020E+04 -0.5926851E+00  0.2051562E-08  0.1018212E+01
  0.1380000E+01  0.3706562E+04 -0.1197282E+01  0.4085546E-01 -0.2627001E+01  0.2524150E+06 -0.2538625E+01  0.1523736E+00  0.3098297E+01  0.5259852E+04  0.5703984E+00  0.5916029E-08 -0.2726365E+01
  0.1410000E+01  0.1897358E+04 -0.1059247E+01  0.3020843E-01 -0.1673785E+01  0.2566423E+06 -0.2531963E+01  0.1905083E+00  0.1437841E+01  0.1038924E+05  0.1274573E+01  0.2861663E-08 -0.1652248E+01
  0.1440000E+01  0.4839262E+03  0.6966795E+00  0.8276650E-01 -0.1058609E+01  0.2605313E+06 -0.2525789E+01  0.1881130E+00  0.2844567E+01  0.1765007E+05  0.1502134E+01  0.4319248E-08  0.1644984E+01
  0.1470000E+01  0.2460484E+04  0.1706006E+01  0.7207309E-01 -0.9223980E+00  0.2640716E+06 -0.2520066E+01  0.1746189E+00  0.2091814E+01  0.2585347E+05  0.1612299E+01  0.5999908E-09  0.8884798E+00
  0.1500000E+01  0.4865888E+04  0.1817966E+01  0.6009991E-01  0.2232174E+01  0.2672539E+06 -0.2514769E+01  0.1142160E+00 -0.2755202E+01  0.3478079E+05  0.1681610E+01  0.1152453E-08 -0.7853982E+00
  0.1530000E+01  0.7473771E+04  0.1872026E+01  0.4226171E-01  0.8507627E+00  0.2700691E+06 -0.2509899E+01  0.1442538E+00 -0.5804114E-01  0.4434714E+05  0.1732443E+01  0.1777003E-08  0.2122451E+01
  0.1560000E+01  0.1026965E+05  0.1910169E+01  0.1957426E-01  0.3116231E+01  0.2725077E+06 -0.2505472E+01  0.7678038E-01 -0.1567055E+01  0.5450204E+05  0.1773360E+01  0.3294780E-08  0.2582993E+01
  0.1590000E+01  0.1324212E+05  0.1941560E+01  0.7162707E-01  0.1484548E+01  0.2745614E+06 -0.2501486E+01  0.1074699E+00  0.7121216E+00  0.6520171E+05  0.1808248E+01  0.1658438E-07 -0.1454713E+01
  0.1620000E+01  0.1637873E+05  0.1969442E+01  0.4377961E-01 -0.1765905E+01  0.2762205E+06 -0.2497952E+01  0.1721652E+00 -0.2261553E+01  0.7639918E+05  0.1839103E+01  0.6627754E-08 -0.1694062E+01
  0.1650000E+01  0.1966878E+05  0.1995248E+01  0.5393193E-01 -0.2943227E+01  0.2774765E+06 -0.2494872E+01  0.5933393E-01  0.1672571E+01  0.8804309E+05  0.1867106E+01  0.8866118E-08  0.1702480E+01
  0.1680000E+01  0.2310342E+05  0.2019438E+01  0.1112191E-01 -0.1593055E+00  0.2783223E+06 -0.2492244E+01  0.1301941E+00  0.2597505E+01  0.1000911E+06  0.1892920E+01  0.9129701E-08  0.1724415E+01
  0.1710000E+01  0.2666780E+05  0.2042359E+01  0.3058528E-01  0.2426244E+01  0.2787566E+06 -0.2490040E+01  0.2314933E+00  0.1721649E+00  0.1124905E+06  0.1916970E+01  0.3156659E-08  0.1663126E+01
  0.1740000E+01  0.3034459E+05  0.2064319E+01  0.5607548E-01  0.1405170E+01  0.2787756E+06 -0.2488263E+01  0.2068950E+00 -0.5883472E+00  0.1251821E+06  0.1939535E+01  0.9817961E-08  0.1779819E+01
  0.1770000E+01  0.3411965E+05  0.2085417E+01  0.2138122E-01  0.1764798E+01  0.2783735E+06 -0.2486924E+01  0.1740882E+00  0.2528594E+01  0.1381088E+06  0.1960823E+01  0.8899874E-08  0.8316614E+00
  0.1800000E+01  0.3797855E+05  0.2105656E+01  0.4624626E-01  0.1812875E+01  0.2775450E+06 -0.2486033E+01  0.1385928E+00 -0.1784975E+01  0.1512166E+06  0.1980958E+01  0.7423474E-08 -0.1072075E+01
  0.1830000E+01  0.4190247E+05  0.2125152E+01  0.8161133E-02 -0.1524125E+01  0.2762906E+06 -0.2485591E+01  0.1343450E+00  0.9379627E+00  0.1644455E+06  0.2000051E+01  0.2397953E-07 -0.1461345E+01
  0.1860000E+01  0.4587453E+05  0.2143928E+01  0.3311188E-01  0.2686369E+01  0.2746039E+06 -0.2485621E+01  0.1596320E+00  0.1510431E+01  0.1777359E+06  0.2018151E+01  0.1102175E-07  0.1368740E+01
  0.1890000E+01  0.4987702E+05  0.2162001E+01  0.5593943E-01  0.1327721E+01  0.2724823E+06 -0.2486130E+01  0.2025411E+00  0.1488710E+01  0.1910259E+06  0.2035331E+01  0.9517665E-08 -0.1348811E+01
  0.1920000E+01  0.5389435E+05  0.2179342E+01  0.2186618E-01  0.2532951E+01  0.2699258E+06 -0.2487127E+01  0.1177462E+00  0.6630993E+00  0.2042613E+06  0.2051617E+01  0.2078633E-08  0.2346294E+01
  0.1950000E+01  0.5790488E+05  0.2196039E+01  0.5359268E-02  0.2296998E+00  0.2669425E+06 -0.2488618E+01  0.3447760E+00  0.2683355E+01  0.2173808E+06  0.2067045E+01  0.2799282E-07  0.1706371E+01
  0.1980000E+01  0.6189118E+05  0.2212079E+01  0.3062465E-01 -0.5944846E+00  0.2635350E+06 -0.2490620E+01  0.8247367E-01  0.2212550E+01  0.2303243E+06  0.2081641E+01  0.1333175E-07  0.1421798E+01
  0.2010000E+01  0.6583523E+05  0.2227488E+01  0.1855508E-01  0.1194628E+01  0.2597110E+06 -0.2493147E+01  0.1651223E+00 -0.1405197E+01  0.2430325E+06  0.2095459E+01  0.6939417E-08  0.1246393E+01
  0.2040000E+01  0.6971738E+05  0.2242280E+01  0.9244952E-01 -0.2022221E+01  0.2554750E+06 -0.2496224E+01  0.1050255E+00 -0.1874787E+01  0.2554476E+06  0.2108503E+01  0.1246359E-07  0.1859681E+01
  0.2070000E+01  0.7352145E+05  0.2256439E+01  0.7292558E-01 -0.4549773E+00  0.2508320E+06 -0.2499887E+01  0.3865014E-01 -0.2832885E+01  0.2675108E+06  0.2120810E+01  0.2361848E-07  0.1484432E+01
  0.2100000E+01  0.7722947E+05  0.2269975E+01  0.3949443E-01  0.4824280E+00  0.2457899E+06 -0.2504157E+01  0.4153001E-01  0.4996066E+00  0.2791662E+06  0.2132395E+01  0.1349279E-07  0.1739846E+01
  0.2130000E+01  0.8082191E+05  0.2282920E+01  0.3789327E-01  0.2358362E+01  0.2403581E+06 -0.2509071E+01  0.3668107E-01  0.6339310E+00  0.2903622E+06  0.2143275E+01  0.1689883E-07  0.1320179E+01
  0.2160000E+01  0.8427903E+05  0.2295282E+01  0.3614737E-01  0.2673820E+01  0.2345435E+06 -0.2514672E+01  0.1083027E+00 -0.2520355E+01  0.3010381E+06  0.2153462E+01  0.5116164E-08  0.6304169E+00
  0.2190000E+01  0.8758266E+05  0.2307102E+01  0.1692067E-01 -0.1992357E+01  0.2283602E+06 -0.2520987E+01  0.2366275E-01  0.2623940E+01  0.3111396E+06  0.2162994E+01  0.8327386E-08  0.9082684E+00
  0.2220000E+01  0.9071392E+05  0.2318357E+01  0.5465923E-01  0.9144551E+00  0.2218196E+06 -0.2528066E+01  0.3579240E+00  0.2617155E+01  0.3206209E+06  0.2171850E+01  0.5480183E-08 -0.1784857E+01
  0.2250000E+01  0.9365683E+05  0.2329102E+01  0.1128082E-01 -0.1348361E+01  0.2149454E+06 -0.2535987E+01  0.1899595E+00 -0.2755562E+01  0.3294278E+06  0.2180080E+01  0.3165000E-08 -0.8472086E+00
  0.2280000E+01  0.9639179E+05  0.2339320E+01  0.1680521E-01  0.3477083E+00  0.2077515E+06 -0.2544836E+01  0.4443103E-01 -0.1941026E+01  0.3375132E+06  0.2187662E+01  0.4777548E-07 -0.1426530E+01
  0.2310000E+01  0.9890295E+05  0.2349038E+01  0.5741515E-02  0.1084156E+01  0.2002626E+06 -0.2554720E+01  0.1133857E+00 -0.2622059E+01  0.3448302E+06  0.2194630E+01  0.1286002E-07 -0.2538839E+01
  0.2340000E+01  0.1011742E+06  0.2358254E+01  0.3051672E-01  0.3083892E+00  0.1924978E+06 -0.2565753E+01  0.8208679E-01  0.1920896E+01  0.3513340E+06  0.2200990E+01  0.2708358E-07 -0.8812863E+00
  0.2370000E+01  0.1031884E+06  0.2366981E+01  0.1154611E-01 -0.1585045E+01  0.1844788E+06 -0.2578053E+01  0.8589266E-01 -0.2470404E+01  0.3569856E+06  0.2206750E+01  0.1572913E-07  0.6131513E+00
  0.2400000E+01  0.1049306E+06  0.2375213E+01  0.2058533E-01 -0.2679245E+01  0.1762283E+06 -0.2591791E+01  0.7986681E-01 -0.1289717E+01  0.3617438E+06  0.2211894E+01  0.3764556E-07 -0.1091936E+01
  0.2430000E+01  0.1063887E+06  0.2382994E+01  0.1510985E-01  0.1089753E+01  0.1677764E+06 -0.2607136E+01  0.7628850E-01  0.2545102E+01  0.3655782E+06  0.2216461E+01  0.9332486E-08  0.2585936E+00
  0.2460000E+01  0.1075475E+06  0.2390307E+01  0.5497994E-02 -0.3048310E+01  0.1591468E+06 -0.2624308E+01  0.6155341E-01  0.1257110E+01  0.3684576E+06  0.2220430E+01  0.2028512E-07 -0.8229440E+00
  0.2490000E+01  0.1083937E+06  0.2397159E+01  0.2651722E-01 -0.1374577E+01  0.1503639E+06 -0.2643543E+01  0.1086066E+00  0.1130076E+00  0.3703445E+06  0.2223792E+01  0.1264299E-07  0.1001948E+01
  0.2520000E+01  0.1089157E+06  0.2403569E+01  0.2249585E-01 -0.9849631E+00  0.1414593E+06 -0.2665128E+01  0.8287986E-01 -0.1480312E+01  0.3712213E+06  0.2226557E+01  0.3649959E-07  0.1797595E+01
  0.2550000E+01  0.1091053E+06  0.2409520E+01  0.1673236E-01  0.1688967E+00  0.1324632E+06 -0.2689417E+01  0.6245003E-01  0.2208380E+01  0.3710640E+06  0.2228712E+01  0.7728478E-08 -0.1956897E+01
  0.2580000E+01  0.1089530E+06  0.2414999E+01  0.2706426E-01  0.1739037E+01  0.1233928E+06 -0.2716900E+01  0.9943234E-01 -0.2402235E+01  0.3698609E+06  0.2230231E+01  0.3637532E-07 -0.3941756E+00
  0.2610000E+01  0.1084530E+06  0.2420022E+01  0.4118210E-01 -0.2376521E+01  0.1142652E+06 -0.2748506E+01  0.8184147E-01  0.5325361E+00  0.3675981E+06  0.2231122E+01  0.2143829E-07 -0.1995255E+00
  0.2640000E+01  0.1075952E+06  0.2424553E+01  0.2248564E-01 -0.1974072E+01  0.1050735E+06 -0.2785319E+01  0.5959903E-01 -0.1815629E+00  0.3642612E+06  0.2231327E+01  0.2691637E-07 -0.2679879E+01
  0.2670000E+01  0.1063779E+06  0.2428592E+01  0.1954124E-01  0.2911511E+01  0.9579933E+05 -0.2829138E+01  0.2909054E-01  0.3099401E+01  0.3598596E+06  0.2230844E+01  0.2505507E-07  0.4314342E+00
  0.2700000E+01  0.1047986E+06  0.2432120E+01  0.2823493E-02  0.2251933E+01  0.8633473E+05 -0.2882937E+01  0.6909009E-01  0.6948293E+00  0.3543908E+06  0.2229627E+01  0.2712258E-07  0.5385792E+00
  0.2730000E+01  0.1028551E+06  0.2435110E+01  0.3823210E-02  0.2347243E+01  0.7626800E+05 -0.2953144E+01  0.6005019E-02  0.2321754E+01  0.3478647E+06  0.2227640E+01  0.3264303E-08  0.5434776E+00
  0.2760000E+01  0.1005500E+06  0.2437532E+01  0.1072258E-01 -0.3004372E+01  0.6366899E+05 -0.3062274E+01  0.5309509E-01  0.3052691E+01  0.3402940E+06  0.2224805E+01  0.1522740E-07 -0.1917934E+01
  0.2790000E+01  0.9788653E+05  0.2439338E+01  0.6253463E-02  0.2019371E+01  0.1541833E+05  0.2794061E+01  0.3712805E-01 -0.7514657E+00  0.3317009E+06  0.2221070E+01  0.2064299E-07  0.2673532E+01
  0.2820000E+01  0.9487593E+05  0.2440469E+01  0.1243616E-01  0.8270142E+00  0.7388052E+05 -0.2934629E+01  0.9911353E-02  0.2610300E+01  0.3221267E+06  0.2216349E+01  0.6099318E-08  0.1983207E+01
  0.2850000E+01  0.9151997E+05  0.2440836E+01  0.5695265E-02 -0.1191289E+01  0.5923390E+05  0.3138324E+01  0.2945211E-01 -0.2364985E+01  0.3115869E+06  0.2210526E+01  0.1807685E-07  0.3122271E+01
  0.2880000E+01  0.8782480E+05  0.2440361E+01  0.9458303E-02 -0.4814431E+00  0.5118215E+05  0.2979812E+01  0.1914650E-01 -0.1892968E+01  0.3001087E+06  0.2203454E+01  0.1252176E-07  0.3610830E+00
  0.2910000E+01  0.8380653E+05  0.2438911E+01  0.1018752E-01  0.3160261E+00  0.4541821E+05  0.2811529E+01  0.3642240E-01 -0.9053607E-01  0.2877446E+06  0.2194993E+01  0.1340073E-07 -0.8307168E+00
  0.2940000E+01  0.7947651E+05  0.2436307E+01  0.1114814E-01  0.1853243E+00  0.4136343E+05  0.2624538E+01  0.2386729E-01 -0.3468821E+00  0.2745392E+06  0.2184893E+01  0.3882451E-08 -0.2498466E+01
  0.2970000E+01  0.7484492E+05  0.2432299E+01  0.1568272E-02 -0.3065201E+01  0.3893376E+05  0.2423183E+01  0.5391639E-01  0.3068966E+01  0.2605232E+06  0.2172873E+01  0.3732509E-08  0.1931392E+01
  0.3000000E+01  0.6993099E+05  0.2426522E+01  0.8176171E-02  0.8072873E+00  0.3802093E+05  0.2219879E+01  0.3983913E-01  0.4297619E-01  0.2457671E+06  0.2158519E+01  0.5666378E-08  0.8635629E+00
  0.3030000E+01  0.6473243E+05  0.2418496E+01  0.4334725E-02 -0.5260619E-01  0.3839499E+05  0.2027511E+01  0.7922700E-01  0.1260934E-01  0.2302539E+06  0.2141291E+01  0.9083763E-08 -0.1598033E+01
  0.3060000E+01  0.5924990E+05  0.2407334E+01  0.9620160E-02 -0.7262912E-01  0.3974952E+05  0.1854959E+01  0.4908050E-02  0.3055578E+01  0.2139911E+06  0.2120225E+01  0.4894984E-08 -0.4758310E-01
  0.3090000E+01  0.5344946E+05  0.2391409E+01  0.8865073E-02 -0.3071880E+01  0.4176377E+05  0.1705569E+01  0.1205901E-01  0.3069980E+01  0.1968513E+06  0.2093775E+01  0.8462411E-08 -0.2701018E+01
  0.3120000E+01  0.4720536E+05  0.2367138E+01  0.3079183E-02 -0.6266671E+00  0.4416218E+05  0.1578523E+01  0.3449355E-01 -0.2993694E+01  0.1783970E+06  0.2058352E+01  0.1022473E-07  0.1145347E+01
  0.3150000E+01  0.3997526E+05  0.2323401E+01  0.1647644E-02 -0.2839446E+00  0.4671856E+05  0.1470906E+01  0.2694614E-01 -0.9828882E+00  0.1567525E+06  0.2003272E+01  0.8402896E-08 -0.7462026E+00
  0.3180000E+01  0.2701148E+05  0.2179223E+01  0.9455946E-03 -0.1166269E+01  0.4926148E+05  0.1379301E+01  0.1319528E-01 -0.2561871E+01  0.1153982E+06  0.1849981E+01  0.1593147E-07 -0.1100613E+01
  0.3210000E+01  0.4392320E+05  0.2589335E+01  0.2737225E-02  0.1760864E+01  0.5166512E+05  0.1300546E+01  0.1912826E-01 -0.2998017E+01  0.1759917E+06  0.2240650E+01  0.7497047E-08  0.4671198E+00
  0.3240000E+01  0.3036238E+05  0.2373922E+01  0.3543870E-02 -0.1509334E+01  0.5384143E+05  0.1231947E+01  0.1244436E-01 -0.6559585E+00  0.1340636E+06  0.2020078E+01  0.1596345E-07 -0.1224829E+01
  0.3270000E+01  0.2307204E+05  0.2272809E+01  0.1099976E-02 -0.6463617E-01  0.5572118E+05  0.1171320E+01  0.1133762E-01 -0.8199846E+00  0.1129322E+06  0.1921813E+01  0.1874250E-07  0.2677945E+01
  0.3300000E+01  0.1691354E+05  0.2141387E+01  0.3085591E-02  0.9040199E+00  0.5725036E+05  0.1116770E+01  0.8647835E-02  0.1433941E+01  0.9553622E+05  0.1820925E+01  0.1067758E-07  0.9480120E+00
  0.3330000E+01  0.1157927E+05  0.1905684E+01  0.3647395E-02 -0.1391118E+01  0.5838802E+05  0.1066927E+01  0.5583487E-02 -0.3065737E+01  0.8023697E+05  0.1696002E+01  0.1472665E-07 -0.3092512E+00
  0.3360000E+01  0.7821095E+04  0.1408827E+01  0.9718195E-02 -0.1292342E+01  0.5911346E+05  0.1020460E+01  0.8274646E-02 -0.1577928E+01  0.6703973E+05  0.1530684E+01  0.2527500E-07 -0.2372480E+01
  0.3390000E+01  0.7642663E+04  0.6446842E+00  0.3191348E-02  0.1161902E+01  0.5941613E+05  0.9764102E+00  0.5025144E-02 -0.1947611E+01  0.5658984E+05  0.1308718E+01  0.2290738E-07  0.1250251E+01
  0.3420000E+01  0.1085589E+05  0.1453707E+00  0.9654619E-02 -0.1238183E+01  0.5926581E+05  0.9338422E+00  0.2650215E-01 -0.2244519E+01  0.4990627E+05  0.1024044E+01  0.5655931E-07  0.2142814E+01
  0.3450000E+01  0.1520417E+05 -0.8737358E-01  0.7954590E-02 -0.2339885E+01  0.5864571E+05  0.8920984E+00  0.8030557E-02 -0.9156116E+00  0.4788721E+05  0.7026016E+00  0.3292229E-07 -0.1320672E+01
  0.3480000E+01  0.1972827E+05 -0.2089118E+00  0.1484441E-01  0.1921660E+01  0.5751532E+05  0.8502839E+00  0.2595324E-01 -0.9819746E+00  0.5039770E+05  0.4003775E+00  0.2714185E-07  0.1059896E+01
  0.3510000E+01  0.2412660E+05 -0.2817975E+00  0.4593017E-02 -0.1844868E+01  0.5580970E+05  0.8068064E+00  0.2068366E-01  0.2830203E+01  0.5618653E+05  0.1568599E+00  0.2031384E-07  0.1553603E+01
  0.3540000E+01  0.2827566E+05 -0.3301737E+00  0.5907062E-02  0.2532325E+01  0.5346623E+05  0.7593144E+00  0.5407513E-01  0.1406231E+01  0.6376514E+05 -0.2523470E-01  0.2319559E-08  0.3058789E+00
  0.3570000E+01  0.3210476E+05 -0.3647283E+00  0.1102776E-01  0.1572180E+01  0.5020278E+05  0.7027358E+00  0.2601126E-02 -0.1367612E+01  0.7203090E+05 -0.1598399E+00  0.2075570E-07  0.1924112E+00
  0.3600000E+01  0.3556422E+05 -0.3909084E+00  0.3314631E-02 -0.2113498E+01  0.4486934E+05  0.6204568E+00  0.9194381E-02 -0.6533005E+00  0.8027170E+05 -0.2612939E+00  0.4191467E-07 -0.1326744E+01
  0.3630000E+01  0.3861883E+05 -0.4117488E+00  0.4604598E-02  0.3016428E+01  0.2421310E+05  0.3548408E+00  0.5579424E-02 -0.2748453E+01  0.8805050E+05 -0.3403149E+00  0.7157083E-07 -0.1484481E+01
  0.3660000E+01  0.4124062E+05 -0.4289720E+00  0.1354201E-01 -0.7701224E+00  0.6012021E+05  0.8461915E+00  0.3244055E-01 -0.1661211E+01  0.9510504E+05 -0.4039631E+00  0.3238922E-07  0.2712511E+01
  0.3690000E+01  0.4340671E+05 -0.4437489E+00  0.9013841E-02 -0.1285070E+01  0.4871944E+05  0.6513672E+00  0.2033502E-01  0.2684242E+01  0.1012596E+06 -0.4569056E+00  0.4415825E-07  0.6187171E+00
  0.3720000E+01  0.4510225E+05 -0.4569046E+00  0.9690338E-02  0.2467175E+01  0.4334343E+05  0.5568432E+00  0.5057337E-01  0.1637896E+01  0.1063905E+06 -0.5024900E+00  0.4864719E-07  0.1677490E+01
  0.3750000E+01  0.4631935E+05 -0.4689808E+00  0.6810216E-02 -0.2114644E+01  0.3905146E+05  0.4715396E+00  0.1904524E-01 -0.5417162E+00  0.1104418E+06 -0.5428186E+00  0.4003443E-07 -0.1972633E+01
  0.3780000E+01  0.4704624E+05 -0.4805985E+00  0.2135677E-02  0.2774852E+01  0.3518489E+05  0.3812376E+00  0.7717962E-02  0.4565466E+00  0.1133506E+06 -0.5796459E+00  0.2778384E-07  0.2124510E+01
  0.3810000E+01  0.4727784E+05 -0.4922656E+00  0.6191483E-02 -0.4137202E+00  0.3159110E+05  0.2799063E+00  0.2584475E-01  0.1741321E+01  0.1150873E+06 -0.6144734E+00  0.1701815E-07 -0.1214428E+01
  0.3840000E+01  0.4701524E+05 -0.5045391E+00  0.3710561E-02 -0.8879873E+00  0.2828245E+05  0.1627674E+00  0.1106224E-01 -0.2522403E+01  0.1156528E+06 -0.6483552E+00  0.2110371E-07  0.1451915E+01
  0.3870000E+01  0.4634648E+05 -0.5194674E+00  0.1372883E-02  0.2894929E+01  0.2531639E+05  0.2497211E-01  0.1637480E-01 -0.2969001E+01  0.1154210E+06 -0.6843438E+00  0.4436341E-07 -0.1466297E+01
  0.3900000E+01  0.4468074E+05 -0.5319716E+00  0.5033568E-02  0.9044440E+00  0.2279194E+05 -0.1367811E+00  0.8807044E-02 -0.5807871E+00  0.1119351E+06 -0.7182632E+00  0.3958019E-07  0.1703542E+01
  0.3930000E+01  0.4291629E+05 -0.5503016E+00  0.5411849E-02 -0.2289137E+01  0.2082596E+05 -0.3237783E+00  0.1857547E-01  0.2779947E+00  0.1087940E+06 -0.7569242E+00  0.1940684E-07 -0.2086780E+01
  0.3960000E+01  0.4041729E+05 -0.5764486E+00  0.3752734E-02  0.6230043E+00  0.1952695E+05 -0.5316678E+00  0.2912620E-02  0.1439334E+01  0.1034812E+06 -0.8052990E+00  0.1324579E-07  0.2215288E+00
  0.3990000E+01  0.3668629E+05 -0.6271883E+00  0.3115217E-02  0.2974586E+01  0.1895688E+05 -0.7497094E+00  0.4255115E-02  0.2532181E+01  0.9414395E+05 -0.8848568E+00  0.4092065E-08  0.9216054E+00
  0.4020000E+01  0.1943214E+05 -0.9358945E+00  0.2797356E-02 -0.2924079E+01  0.1906526E+05 -0.9625665E+00  0.7155180E-02 -0.3967920E-01  0.3773233E+05 -0.1379699E+01  0.5390334E-07  0.2094362E+01
  0.4050000E+01  0.3741968E+05 -0.4456774E+00  0.2119825E-02  0.1656387E+00  0.1972486E+05 -0.1157706E+01  0.1979189E-01  0.2915249E+01  0.1083297E+06 -0.6997244E+00  0.5183959E-07  0.1672448E+01
  0.4080000E+01  0.3199632E+05 -0.5429651E+00  0.3396875E-03 -0.1215969E+01  0.2076811E+05 -0.1329204E+01  0.9638699E-02  0.2898797E+01  0.9354888E+05 -0.8312100E+00  0.2556505E-07  0.1644861E+01
  0.4110001E+01  0.2772298E+05 -0.5929297E+00  0.1956602E-02 -0.1582738E+01  0.2203070E+05 -0.1476628E+01  0.4092476E-02 -0.7576398E+00  0.8384406E+05 -0.9071668E+00  0.1657406E-07  0.1622618E+00
  0.4140000E+01  0.2358003E+05 -0.6408770E+00  0.2357456E-02  0.1671290E+01  0.2340538E+05 -0.1603926E+01  0.8172913E-02 -0.3065600E+01  0.7498954E+05 -0.9784421E+00  0.5392861E-07 -0.1721394E+01
  0.4170000E+01  0.1944020E+05 -0.7002336E+00  0.2744657E-02  0.1521610E+01  0.2497979E+05 -0.1724764E+01  0.9460500E-02  0.9601891E+00  0.6638901E+05 -0.1057497E+01  0.1201082E-07 -0.1390509E+01
  0.4200000E+01  0.1531914E+05 -0.7852700E+00  0.2360826E-04 -0.3121393E+01  0.2497765E+05 -0.1791231E+01  0.7228938E-02 -0.8751185E+00  0.5796703E+05 -0.1151883E+01  0.2094805E-07 -0.1292115E+01
  0.4230000E+01  0.1132480E+05 -0.9250718E+00  0.2236881E-02 -0.1312116E+01  0.2626216E+05 -0.1878255E+01  0.4956443E-02 -0.1425739E+01  0.4988724E+05 -0.1270320E+01  0.1126525E-07 -0.2826378E+01
  0.4260000E+01  0.7742699E+04 -0.1195271E+01  0.2127189E-02  0.1652932E+01  0.2696017E+05 -0.1954906E+01  0.1016623E-01  0.1656301E+01  0.4246670E+05 -0.1424708E+01  0.6981522E-08 -0.1696185E+01
  0.4290000E+01  0.5433223E+04 -0.1765990E+01  0.2157220E-02  0.8024358E+00  0.2726399E+05 -0.2025938E+01  0.1549310E-02  0.2476068E+01  0.3616159E+05 -0.1628982E+01  0.6161220E-08  0.1183272E+01
  0.4320000E+01  0.5930668E+04 -0.2520554E+01  0.1466199E-02 -0.1940130E+01  0.2718354E+05 -0.2094843E+01  0.5385882E-02 -0.1349926E+01  0.3161935E+05 -0.1893268E+01  0.9243846E-08  0.6334259E+00
  0.4350000E+01  0.8575078E+04 -0.2954943E+01  0.8768360E-03 -0.1901446E+01  0.2657534E+05 -0.2166891E+01  0.3546769E-02  0.1688097E+01  0.2950665E+05 -0.2205238E+01  0.4534224E-08 -0.8398896E+00
  0.4380000E+01  0.1182285E+05  0.3122269E+01  0.5037951E-03 -0.2239477E+01  0.2489379E+05 -0.2255461E+01  0.4091338E-02 -0.3127045E+01  0.3005489E+05 -0.2520168E+01  0.1400330E-07  0.1595739E+01
  0.4410000E+01  0.1509898E+05  0.3009182E+01  0.7829044E-03  0.9884527E+00  0.1637081E+05 -0.2502586E+01  0.1142652E-02  0.2689435E+01  0.3277433E+05 -0.2791443E+01  0.8152583E-08 -0.1714082E+01
  0.4440000E+01  0.1822686E+05  0.2936705E+01  0.4112932E-02 -0.1923557E+01  0.3267647E+05 -0.2134151E+01  0.1223245E-01 -0.1249766E+01  0.3688010E+05 -0.3005601E+01  0.1248709E-07  0.1373744E+01
  0.4470000E+01  0.2036124E+05  0.2891408E+01  0.3787074E-02  0.1213457E+01  0.2749551E+05 -0.2298738E+01  0.3196191E-02  0.1708033E+01  0.3947238E+05  0.3133708E+01  0.3703992E-07 -0.2202943E+01
  0.4500000E+01  0.2329184E+05  0.2856133E+01  0.5962617E-02 -0.1664419E+01  0.2506789E+05 -0.2390436E+01  0.1060880E-01 -0.2979256E+01  0.4540909E+05  0.3006606E+01  0.3723035E-07  0.1589559E+01
  0.4530000E+01  0.2538561E+05  0.2825869E+01  0.2288473E-02  0.2423135E+01  0.2298811E+05 -0.2477295E+01  0.6452514E-02 -0.2993232E+01  0.4963999E+05  0.2907685E+01  0.2668985E-07  0.1301484E+01