VARIABLES="w (rad/s)"
"A   1   1" "B   1   1"
"A   1   2" "B   1   2"
"A   1   3" "B   1   3"
"A   1   4" "B   1   4"
"A   1   5" "B   1   5"
"A   1   6" "B   1   6"
Zone t="Motion of body    1 in DoF   1",I=   525,F=POINT
  0.4000000E-01  0.1645624E+03  0.1508737E-04 -0.3929017E-07 -0.4041212E-13  0.1675401E-04  0.1629981E-06 -0.3479323E-07  0.7666047E-13 -0.4525987E+02 -0.4075760E-05  0.1658396E-12 -0.1058791E-21
  0.8000000E-01  0.1720419E+03  0.1289261E-03 -0.2910383E-07 -0.2131628E-12  0.1744756E-04  0.2701094E-06  0.2227694E-07 -0.1700289E-12 -0.4757161E+02 -0.3487316E-04 -0.1089406E-12 -0.3303428E-19
  0.1200000E+00  0.1758125E+03  0.4387957E-03 -0.1746230E-06  0.5684342E-13  0.2165446E-04  0.6674888E-06 -0.6924878E-07 -0.3818317E-12 -0.4845049E+02 -0.1187143E-03  0.4348374E-13 -0.2710505E-19
  0.1600000E+00  0.1770249E+03  0.1045449E-02 -0.1848093E-06  0.6394885E-12  0.3000596E-04  0.1187500E-05  0.7344134E-07 -0.5661444E-12 -0.4868007E+02 -0.2825020E-03 -0.1526557E-12 -0.1355253E-19
  0.2000000E+00  0.1771323E+03  0.2048945E-02  0.1257285E-06  0.7389644E-12  0.2611661E-04  0.1311275E-05  0.3806818E-07  0.2137318E-12 -0.4878080E+02 -0.5539765E-03  0.7993606E-13  0.7453890E-18
  0.2400000E+00  0.1776062E+03  0.3562140E-02 -0.2735760E-06 -0.8924417E-11  0.1529097E-04  0.1078724E-05 -0.5347047E-07  0.1772124E-11 -0.4884079E+02 -0.9623642E-03 -0.1174986E-12  0.2466560E-17
  0.2800000E+00  0.1777122E+03  0.5682114E-02 -0.1363722E-06 -0.6707523E-11  0.1424726E-04  0.1219583E-05  0.1310302E-07  0.1090715E-10 -0.4885754E+02 -0.1534739E-02  0.2061843E-13 -0.4851805E-17
  0.3200000E+00  0.1777200E+03  0.8531579E-02  0.3346941E-06  0.5002221E-11  0.1856424E-04  0.1768857E-05  0.1962448E-07 -0.1388195E-11 -0.4891369E+02 -0.2305256E-02 -0.8881784E-13  0.9540979E-17
  0.3600000E+00  0.1779531E+03  0.1223676E-01  0.2173086E-06  0.5979928E-10  0.1748477E-04  0.1862484E-05  0.3583978E-07  0.1269373E-11 -0.4894155E+02 -0.3305042E-02  0.1961394E-12  0.1181780E-16
  0.4000000E+00  0.1781922E+03  0.1692472E-01 -0.1280569E-06  0.1000444E-10  0.1016844E-04  0.1359383E-05 -0.9389211E-07  0.6717238E-11 -0.4896941E+02 -0.4569092E-02  0.5773160E-13 -0.1235990E-16
  0.4400000E+00  0.1782415E+03  0.2272314E-01  0.1100654E-06  0.3706191E-10  0.1628994E-04  0.2476754E-05 -0.5488684E-07  0.4681699E-11 -0.4898385E+02 -0.6133378E-02 -0.1170781E-12  0.4553649E-17
  0.4800000E+00  0.1783197E+03  0.2978754E-01 -0.1280569E-06  0.2637535E-10  0.1495609E-04  0.2123778E-05  0.7464109E-07 -0.2523415E-10 -0.4903066E+02 -0.8040546E-02  0.2960595E-12 -0.1517883E-16
  0.5200000E+00  0.1784691E+03  0.3827117E-01  0.1289524E-06  0.2728484E-10  0.5488535E-05  0.1036000E-05  0.1501038E-07  0.1386569E-10 -0.4907792E+02 -0.1032912E-01  0.9821204E-13 -0.2103352E-16
  0.5600000E+00  0.1786888E+03  0.4835179E-01 -0.2328306E-06  0.7366907E-10 -0.2288705E-05 -0.5593362E-06 -0.3938031E-08 -0.2577916E-10 -0.4911468E+02 -0.1304423E-01  0.1102293E-12 -0.4770490E-17
  0.6000000E+00  0.1788647E+03  0.6021237E-01 -0.2561137E-06 -0.7639755E-10 -0.1212272E-05 -0.3643980E-06 -0.1912952E-07 -0.1555645E-11 -0.4913616E+02 -0.1623617E-01  0.3848773E-13  0.4336809E-18
  0.6400000E+00  0.1790504E+03  0.7407025E-01  0.8731149E-08 -0.6366463E-10 -0.4760204E-05 -0.1430493E-05 -0.3631335E-07 -0.4552625E-10 -0.4917368E+02 -0.1996666E-01 -0.1582068E-12 -0.5204170E-16
  0.6800000E+00  0.1792354E+03  0.9006198E-01 -0.1396984E-06  0.7003109E-10 -0.1289591E-04 -0.2917485E-05  0.3861507E-08  0.5240919E-11 -0.4921925E+02 -0.2427007E-01 -0.3330669E-13  0.4336809E-17
  0.7200000E+00  0.1793893E+03  0.1084756E+00  0.0000000E+00 -0.2910383E-10 -0.1462589E-04 -0.3755532E-05 -0.1436588E-06  0.9835177E-10 -0.4926194E+02 -0.2922374E-01 -0.3454027E-13  0.2428613E-16
  0.7600000E+00  0.1795073E+03  0.1295796E+00 -0.2867493E-06  0.1582521E-09 -0.1983709E-04 -0.4231471E-05  0.3255991E-07  0.4853185E-10 -0.4930581E+02 -0.3490168E-01  0.1636118E-12 -0.1439820E-15
  0.8000000E+00  0.1797301E+03  0.1537304E+00  0.3259629E-07  0.4547474E-10 -0.1547392E-04 -0.4541177E-05 -0.1024996E-06  0.5275513E-10 -0.4935872E+02 -0.4138978E-01  0.1809664E-12 -0.8673617E-18
  0.8400000E+00  0.1799862E+03  0.1811634E+00  0.5765330E-07 -0.4056346E-09 -0.2023485E-04 -0.5997555E-05 -0.2383580E-07  0.3386846E-10 -0.4941351E+02 -0.4875693E-01  0.1004488E-12  0.7372575E-16
  0.8800000E+00  0.1802559E+03  0.2121486E+00  0.3809956E-07  0.1891749E-09 -0.1494726E-04 -0.4995799E-05 -0.3932531E-07  0.5750955E-12 -0.4946874E+02 -0.5706717E-01  0.5450186E-13  0.3174544E-15
  0.9200000E+00  0.1805386E+03  0.2471184E+00  0.1174276E-06 -0.3637979E-10 -0.1636451E-04 -0.5266427E-05 -0.1070806E-07  0.2196376E-10 -0.4952390E+02 -0.6643564E-01 -0.1100569E-12 -0.1734723E-16
  0.9600000E+00  0.1808215E+03  0.2864728E+00 -0.8149073E-07  0.3929017E-09 -0.8925721E-05 -0.3488979E-05  0.8142820E-07  0.5821743E-10 -0.4958379E+02 -0.7697268E-01 -0.1443290E-12 -0.1786765E-15
  0.1000000E+01  0.1810515E+03  0.3307552E+00  0.2272427E-06  0.4401954E-09 -0.1622061E-04 -0.5198568E-05  0.1894864E-07 -0.1175513E-09 -0.4963019E+02 -0.8881934E-01  0.7727152E-13  0.1058181E-15
  0.1040000E+01  0.1813354E+03  0.3806217E+00  0.2722328E-06  0.4147296E-09 -0.1386540E-04 -0.4494375E-05  0.1947652E-07 -0.1513145E-09 -0.4969394E+02 -0.1021529E+00  0.3629575E-12  0.1491862E-15
  0.1080000E+01  0.1816308E+03  0.4364584E+00  0.3276876E-07 -0.5384209E-09 -0.7963993E-05 -0.2099610E-05  0.5607014E-07  0.2196403E-09 -0.4976794E+02 -0.1170947E+00 -0.8470590E-13 -0.7285839E-16
  0.1120000E+01  0.1819136E+03  0.4985807E+00  0.5155536E-07 -0.1455192E-09 -0.2729731E-05 -0.3143218E-06  0.3118470E-07 -0.1422560E-09 -0.4984324E+02 -0.1337030E+00  0.8961086E-13  0.1630640E-15
  0.1160000E+01  0.1822117E+03  0.5677481E+00  0.1894760E-06  0.5966285E-09 -0.5001343E-05 -0.1532920E-05  0.5864007E-07  0.2306564E-09 -0.4992493E+02 -0.1521792E+00 -0.1263357E-12  0.1734723E-16
  0.1200000E+01  0.1825497E+03  0.6447963E+00  0.2359350E-06  0.6621121E-09 -0.5581921E-05  0.3534788E-06  0.2173219E-07  0.5418954E-10 -0.5000175E+02 -0.1727172E+00  0.4662936E-13  0.2740863E-15
  0.1240000E+01  0.1829283E+03  0.7307169E+00 -0.1066515E-06  0.8076313E-09 -0.6564979E-05 -0.1518107E-05 -0.1078943E-07  0.2354987E-09 -0.5008659E+02 -0.1955937E+00 -0.1074409E-12 -0.5898060E-16
  0.1280000E+01  0.1832880E+03  0.8265670E+00 -0.1673470E-06  0.4511094E-09 -0.1454555E-05 -0.3317236E-06 -0.1323510E-06 -0.9857004E-11 -0.5015854E+02 -0.2210723E+00 -0.1158795E-12  0.6938894E-16
  0.1320000E+01  0.1837071E+03  0.9338121E+00  0.1171209E-06  0.0000000E+00  0.4300752E-05  0.1966714E-05 -0.5379713E-07  0.1233520E-09 -0.5024744E+02 -0.2495519E+00  0.9823791E-13 -0.7077672E-15
  0.1360000E+01  0.1841470E+03  0.1053487E+01 -0.7669716E-07  0.1004082E-08 -0.2492315E-05  0.2339557E-06 -0.7817324E-07  0.2773959E-09 -0.5034017E+02 -0.2813337E+00  0.6008266E-13 -0.2220446E-15
  0.1400000E+01  0.1845796E+03  0.1185939E+01  0.8115811E-07  0.1033186E-08 -0.7219247E-05 -0.4504704E-05  0.5776916E-09 -0.1642881E-09 -0.5043297E+02 -0.3164911E+00  0.1268826E-12  0.5620504E-15
  0.1440000E+01  0.1850391E+03  0.1332546E+01  0.9830627E-07 -0.9895302E-09 -0.9067783E-05 -0.3971381E-05 -0.4899966E-07 -0.5618439E-09 -0.5053629E+02 -0.3553406E+00 -0.8635068E-13  0.1214306E-14
  0.1480000E+01  0.1855133E+03  0.1494543E+01  0.3775632E-07 -0.2546585E-08 -0.1159119E-04 -0.4037847E-05  0.8454030E-07 -0.2051230E-09 -0.5064067E+02 -0.3981939E+00  0.6721350E-13 -0.2359224E-15
  0.1520000E+01  0.1859784E+03  0.1673929E+01 -0.9803396E-07  0.2153683E-08  0.2422511E-05  0.3656742E-05  0.5696877E-07  0.2230145E-09 -0.5074403E+02 -0.4455920E+00  0.9699843E-13 -0.5967449E-15
  0.1560000E+01  0.1864719E+03  0.1872980E+01 -0.8596824E-07 -0.4249159E-08  0.6519258E-06  0.3776471E-05  0.9892999E-07  0.1218332E-09 -0.5085998E+02 -0.4981468E+00 -0.9337261E-13 -0.8326673E-15
  0.1600000E+01  0.1869203E+03  0.2094083E+01 -0.6286427E-07  0.2386514E-08  0.9916403E-06  0.4305270E-05 -0.1358806E-06  0.3775185E-09 -0.5096561E+02 -0.5564666E+00  0.4440892E-14 -0.1665335E-15
  0.1640000E+01  0.1874264E+03  0.2340751E+01 -0.6814556E-08  0.8731149E-10 -0.5676667E-06  0.4492096E-05 -0.5099063E-07 -0.1826237E-09 -0.5109151E+02 -0.6214861E+00  0.9748300E-14  0.1970646E-14
  0.1680000E+01  0.1879443E+03  0.2616013E+01  0.1552204E-06 -0.6693881E-09  0.3820224E-06  0.3143272E-05 -0.1034249E-06  0.9535484E-11 -0.5122011E+02 -0.6939974E+00 -0.4335157E-13 -0.4024558E-15
  0.1720000E+01  0.1885394E+03  0.2922084E+01 -0.6497599E-08 -0.1600711E-08 -0.4114808E-05 -0.9223077E-06  0.2430334E-07 -0.1774936E-09 -0.5136009E+02 -0.7746034E+00  0.2272084E-13  0.2428613E-14
  0.1760000E+01  0.1891489E+03  0.3259902E+01  0.3598292E-07  0.1949957E-08 -0.1023615E-04 -0.5665443E-05 -0.6122811E-07 -0.7425172E-10 -0.5149841E+02 -0.8633885E+00 -0.3734387E-13 -0.7771561E-15
  0.1800000E+01  0.1898097E+03  0.3632940E+01  0.7243620E-07  0.2910383E-08 -0.4446548E-05 -0.6987357E-06 -0.2773226E-07  0.5197052E-09 -0.5164515E+02 -0.9611756E+00 -0.1174369E-12 -0.1360023E-14
  0.1840000E+01  0.1904939E+03  0.4044238E+01 -0.6073843E-07 -0.1804437E-08 -0.3302462E-05 -0.4455927E-05 -0.4589241E-07 -0.9916050E-09 -0.5179584E+02 -0.1068768E+01  0.2992775E-13 -0.3191891E-14
  0.1880000E+01  0.1911864E+03  0.4497995E+01  0.1446522E-06  0.4598405E-08 -0.1109426E-04 -0.9345313E-05  0.1290975E-07 -0.9170833E-09 -0.5194422E+02 -0.1187222E+01 -0.1294473E-12 -0.2636780E-14
  0.1920000E+01  0.1919094E+03  0.4999972E+01  0.1435789E-06 -0.2910383E-08 -0.1294551E-04 -0.1513818E-04  0.2949084E-07 -0.4641549E-09 -0.5210181E+02 -0.1318081E+01  0.1452542E-12 -0.8604228E-15
  0.1960000E+01  0.1926286E+03  0.5556564E+01  0.1900658E-07 -0.2386514E-08 -0.9595949E-06  0.7393464E-06 -0.7037169E-07  0.1471548E-08 -0.5225728E+02 -0.1462962E+01  0.2510463E-12 -0.3358425E-14
  0.2000000E+01  0.1933668E+03  0.6175519E+01  0.2980232E-07  0.6053597E-08  0.2444955E-05  0.6559290E-05  0.2634761E-07  0.1208548E-08 -0.5241677E+02 -0.1623830E+01  0.8526513E-13 -0.8604228E-15
  0.2040000E+01  0.1941569E+03  0.6865235E+01  0.3780074E-06  0.3026798E-08 -0.5964688E-05 -0.6200593E-05 -0.1536422E-07  0.1883734E-08 -0.5259097E+02 -0.1802874E+01  0.3483053E-14 -0.3830269E-14
  0.2080000E+01  0.1949744E+03  0.7633341E+01 -0.5373015E-08 -0.7101335E-08 -0.4188825E-05 -0.9217183E-06  0.6282160E-07 -0.1608697E-08 -0.5277285E+02 -0.2002249E+01 -0.1195625E-12  0.7216450E-14
  0.2120000E+01  0.1958123E+03  0.8482568E+01  0.1036755E-06  0.2910383E-08 -0.1287916E-04 -0.1098557E-04  0.7528085E-07 -0.5074980E-08 -0.5296439E+02 -0.2222636E+01  0.6368072E-13 -0.7382983E-14
  0.2160000E+01  0.1966687E+03  0.9417490E+01  0.5174014E-07 -0.2793968E-08 -0.2026554E-04 -0.3019320E-04 -0.4376143E-07  0.3256957E-08 -0.5316410E+02 -0.2464760E+01 -0.3289550E-13 -0.6550316E-14
  0.2200000E+01  0.1975351E+03  0.1044346E+02  0.2218241E-06 -0.9080395E-08 -0.2402040E-04 -0.3167757E-04  0.4492346E-07 -0.2249948E-08 -0.5336476E+02 -0.2729874E+01 -0.3633457E-12  0.2331468E-14
  0.2240000E+01  0.1984304E+03  0.1156769E+02  0.1263938E-06 -0.2479646E-07 -0.1400819E-04 -0.2190635E-04  0.1045817E-07 -0.3864898E-08 -0.5357817E+02 -0.3019863E+01 -0.1704985E-12  0.1049161E-13
  0.2280000E+01  0.1993174E+03  0.1279917E+02  0.1601221E-06  0.5587935E-08 -0.1468365E-04 -0.2897056E-04 -0.7767144E-07  0.2964327E-08 -0.5379029E+02 -0.3336970E+01 -0.3038505E-13  0.1221245E-14
  0.2320000E+01  0.2002755E+03  0.1415273E+02 -0.1605729E-08 -0.9313226E-09 -0.1898915E-04 -0.3117467E-04 -0.4536673E-07 -0.4168385E-08 -0.5401594E+02 -0.3684774E+01  0.5053429E-13  0.5662137E-14
  0.2360000E+01  0.2012313E+03  0.1564165E+02  0.2036282E-06  0.1653098E-07 -0.1025550E-04 -0.2467232E-04 -0.4615435E-07  0.1660084E-08 -0.5422891E+02 -0.4066291E+01  0.2897870E-12  0.4218847E-14
  0.2400000E+01  0.2022397E+03  0.1728434E+02 -0.6053597E-07  0.1955777E-07 -0.8369194E-05 -0.2206489E-04 -0.1983589E-07 -0.9377061E-08 -0.5445002E+02 -0.4486285E+01  0.5033011E-13 -0.2220446E-14
  0.2440000E+01  0.2033122E+03  0.1909923E+02 -0.3206192E-07  0.8614734E-08 -0.1171692E-04 -0.3034619E-04  0.1259482E-07  0.7087806E-09 -0.5468187E+02 -0.4949334E+01  0.3203267E-13 -0.2353673E-13
  0.2480000E+01  0.2044126E+03  0.2110175E+02  0.4055759E-07  0.1862645E-07 -0.1390750E-04 -0.3871178E-04 -0.5974427E-08  0.4275932E-08 -0.5491766E+02 -0.5459653E+01  0.6231575E-13  0.6217249E-14
  0.2520000E+01  0.2055497E+03  0.2330050E+02  0.7834936E-07 -0.1327135E-07 -0.4821904E-05 -0.2319564E-04  0.7201069E-08 -0.1155928E-07 -0.5516532E+02 -0.6019527E+01  0.1409807E-13  0.1332268E-14
  0.2560000E+01  0.2066838E+03  0.2569924E+02 -0.1455192E-07 -0.9778887E-08 -0.8645020E-05 -0.3571389E-04 -0.1044912E-06 -0.1082975E-07 -0.5540996E+02 -0.6628713E+01 -0.3608225E-13 -0.7771561E-15
  0.2600000E+01  0.2078495E+03  0.2830552E+02  0.8596824E-08 -0.3329478E-07 -0.8944100E-05 -0.1670091E-04 -0.6655578E-07  0.2999514E-08 -0.5565720E+02 -0.7288568E+01  0.6148928E-13 -0.4996004E-14
  0.2640000E+01  0.2090425E+03  0.3112680E+02  0.1185320E-06  0.1536682E-07 -0.1725328E-05 -0.1529852E-04  0.1273499E-07  0.1532408E-07 -0.5591520E+02 -0.8000967E+01 -0.4575464E-13 -0.4884981E-14
  0.2680000E+01  0.2101908E+03  0.3416581E+02 -0.6394155E-07 -0.2328306E-07 -0.6773460E-05 -0.1612451E-04  0.1497951E-07  0.3730577E-08 -0.5615692E+02 -0.8765877E+01  0.3314098E-13  0.1643130E-13
  0.2720000E+01  0.2113664E+03  0.3745572E+02  0.4382694E-07 -0.1862645E-08 -0.9231991E-05 -0.2453543E-04 -0.1044518E-06 -0.6673190E-08 -0.5640947E+02 -0.9592370E+01  0.1606558E-12 -0.1709743E-13
  0.2760000E+01  0.2125378E+03  0.4101603E+02 -0.1268758E-06 -0.3725290E-08  0.8059737E-05  0.1434240E-04 -0.2356975E-07 -0.9442431E-08 -0.5666230E+02 -0.1048513E+02 -0.1094133E-12 -0.8881784E-14
  0.2800000E+01  0.2136467E+03  0.4486909E+02 -0.6386212E-07  0.3911555E-07  0.8794845E-05  0.1923347E-04 -0.5787927E-07  0.9133259E-08 -0.5689407E+02 -0.1144868E+02 -0.2398082E-12 -0.2842171E-13
  0.2840000E+01  0.2148266E+03  0.4905108E+02  0.7607987E-07  0.5494803E-07  0.1200201E-04  0.2171309E-04 -0.8651745E-07  0.2859224E-09 -0.5715373E+02 -0.1249360E+02 -0.4753631E-13  0.4662937E-14
  0.2880000E+01  0.2159523E+03  0.5357317E+02  0.4915313E-07  0.2142042E-07  0.1619386E-04  0.4628976E-04  0.5320591E-07  0.2440015E-07 -0.5739540E+02 -0.1362099E+02 -0.2146431E-12  0.2664535E-14
  0.2920000E+01  0.2171126E+03  0.5846921E+02 -0.3521165E-06  0.5587935E-08  0.1270490E-04  0.4435750E-04  0.6341716E-07  0.4030016E-07 -0.5765258E+02 -0.1484085E+02 -0.1119348E-12 -0.3153033E-13
  0.2960000E+01  0.2182167E+03  0.6373198E+02  0.4077683E-06  0.6239861E-07  0.1088098E-04  0.5093712E-04 -0.7623747E-07 -0.1558362E-07 -0.5789874E+02 -0.1615029E+02 -0.1440289E-13 -0.9769963E-14
  0.3000000E+01  0.2193540E+03  0.6936282E+02 -0.7947286E-07  0.7357448E-07  0.2035211E-04  0.7974735E-04  0.5634744E-07  0.1951605E-07 -0.5814516E+02 -0.1754607E+02 -0.5802766E-13  0.2220446E-14
  0.3040000E+01  0.2204810E+03  0.7534913E+02  0.1960679E-07  0.8102506E-07  0.1191986E-04  0.3984786E-04  0.6106180E-07 -0.2349600E-07 -0.5837027E+02 -0.1902182E+02  0.8531188E-13 -0.4396483E-13
  0.3080000E+01  0.2216182E+03  0.8170307E+02  0.2951204E-06 -0.1769513E-07  0.7651662E-05  0.3237551E-04  0.1808211E-07 -0.3239484E-07 -0.5859779E+02 -0.2058274E+02  0.1695613E-12 -0.5062617E-13
  0.3120000E+01  0.2227005E+03  0.8842480E+02 -0.2388007E-06 -0.2142042E-07  0.1028813E-04  0.6798387E-04 -0.6065456E-07 -0.2214961E-08 -0.5880019E+02 -0.2222602E+02  0.1093143E-12 -0.1554312E-13
  0.3160000E+01  0.2237613E+03  0.9554573E+02 -0.2357779E-06 -0.1322478E-06  0.3818496E-05  0.2001598E-04 -0.1206252E-06 -0.5363745E-09 -0.5899717E+02 -0.2396142E+02  0.1540259E-12  0.5417888E-13
  0.3200000E+01  0.2248021E+03  0.1030946E+03 -0.1001172E-06 -0.5681068E-07 -0.2407905E-05 -0.1118227E-04 -0.1153182E-07  0.8455572E-08 -0.5918860E+02 -0.2579594E+02  0.1332268E-13 -0.1194600E-12
  0.3240000E+01  0.2256883E+03  0.1110606E+03  0.1333746E-06  0.1499429E-06 -0.3280684E-05 -0.1762365E-04 -0.1237168E-06  0.3650666E-07 -0.5933220E+02 -0.2772301E+02  0.2883838E-12  0.8348877E-13
  0.3280000E+01  0.2265965E+03  0.1195235E+03 -0.4543037E-07 -0.9033829E-07 -0.6882275E-05 -0.2635422E-04  0.5555765E-07  0.1618582E-07 -0.5948431E+02 -0.2976542E+02 -0.2079637E-12  0.3463896E-13
  0.3320000E+01  0.2274417E+03  0.1284661E+03  0.1907528E-06  0.3036112E-06  0.1583389E-05 -0.2501474E-04  0.2197608E-07  0.1011813E-07 -0.5961672E+02 -0.3191609E+02  0.2279301E-12  0.9769963E-13
  0.3360000E+01  0.2282079E+03  0.1379128E+03  0.3215280E-06 -0.4097819E-07  0.1947185E-05 -0.1695321E-04 -0.3109010E-07  0.1502917E-07 -0.5972990E+02 -0.3418171E+02  0.1892666E-12 -0.7283063E-13
  0.3400000E+01  0.2289284E+03  0.1478798E+03 -0.4273127E-06  0.9872019E-07 -0.2380625E-05 -0.1331267E-04  0.9835409E-07  0.6050527E-07 -0.5983661E+02 -0.3656740E+02  0.2382408E-12  0.1048050E-12
  0.3440000E+01  0.2295085E+03  0.1583256E+03 -0.2880602E-06 -0.2756715E-06 -0.6282366E-06  0.1574971E-04 -0.5990952E-07 -0.3680839E-07 -0.5990530E+02 -0.3905812E+02  0.1590459E-12  0.1216804E-12
  0.3480000E+01  0.2300416E+03  0.1692704E+03 -0.2547756E-06 -0.7450581E-07  0.1572677E-05  0.1703319E-04 -0.4357237E-07 -0.3819150E-07 -0.5996849E+02 -0.4166128E+02 -0.1020895E-13 -0.3019807E-13
  0.3520000E+01  0.2304542E+03  0.1806617E+03 -0.8466569E-08 -0.3855675E-06 -0.7876555E-05 -0.5194533E-04 -0.6774469E-07  0.1764283E-07 -0.5999413E+02 -0.4435612E+02  0.7065056E-13  0.9059420E-13
  0.3560000E+01  0.2307895E+03  0.1925014E+03 -0.2302146E-06 -0.2365559E-06 -0.1526480E-05 -0.4450092E-05  0.2079958E-07 -0.1218405E-07 -0.6000868E+02 -0.4714842E+02 -0.2395088E-12 -0.1065814E-13
  0.3600000E+01  0.2310015E+03  0.2047749E+03 -0.3332065E-06 -0.5587935E-08  0.1090359E-04  0.9468605E-04 -0.2387045E-07 -0.2428851E-07 -0.5998821E+02 -0.5002823E+02 -0.3947460E-12  0.3907985E-13
  0.3640000E+01  0.2310974E+03  0.2174723E+03  0.7778078E-07  0.9313226E-07  0.9814707E-05  0.1192815E-03  0.2657998E-07  0.5900506E-07 -0.5994621E+02 -0.5299853E+02  0.1112663E-12 -0.8437695E-13
  0.3680000E+01  0.2311047E+03  0.2306189E+03 -0.7288612E-07 -0.3390014E-06  0.9230090E-05  0.6543915E-04 -0.1976544E-07 -0.8425422E-07 -0.5988446E+02 -0.5606277E+02  0.2249408E-12 -0.3996803E-13
  0.3720000E+01  0.2309314E+03  0.2441625E+03 -0.8011377E-08 -0.2048910E-06  0.3275902E-06 -0.2989033E-04 -0.4200765E-07 -0.5356242E-07 -0.5978240E+02 -0.5920832E+02  0.1432546E-13  0.7993606E-13
  0.3760000E+01  0.2305900E+03  0.2580812E+03 -0.7331688E-07  0.6146729E-07 -0.5018367E-05 -0.1054491E-03  0.6413679E-07  0.6074970E-07 -0.5963015E+02 -0.6241884E+02  0.6614094E-14  0.2344791E-12
  0.3800000E+01  0.2302155E+03  0.2724158E+03 -0.1254835E-06 -0.5904585E-06  0.2194980E-05 -0.6481470E-04 -0.4868262E-07 -0.1851868E-07 -0.5946870E+02 -0.6570894E+02  0.9629724E-13 -0.4440892E-14
  0.3840000E+01  0.2296934E+03  0.2870869E+03 -0.2716358E-07 -0.2402812E-06 -0.2658150E-06  0.4344853E-05 -0.3809812E-07  0.5585571E-07 -0.5926184E+02 -0.6905216E+02 -0.1822616E-12 -0.1145750E-12
  0.3880000E+01  0.2290332E+03  0.3021089E+03  0.2496328E-06  0.7823110E-07  0.4415021E-05  0.5480647E-04 -0.4954918E-07  0.5912034E-07 -0.5902051E+02 -0.7245782E+02 -0.2289120E-12  0.1270095E-12
  0.3920000E+01  0.2282577E+03  0.3174715E+03  0.3554231E-06  0.1527369E-06 -0.2405283E-05  0.1860433E-04 -0.4045465E-07 -0.4113281E-07 -0.5875465E+02 -0.7592529E+02  0.2900174E-13 -0.2131628E-13
  0.3960000E+01  0.2272804E+03  0.3330740E+03 -0.6208817E-07  0.1452863E-06 -0.6798302E-05 -0.3896211E-04 -0.5084902E-09 -0.7410335E-07 -0.5843816E+02 -0.7942411E+02 -0.1794300E-12 -0.1705303E-12
  0.4000000E+01  0.2261682E+03  0.3489373E+03  0.1359731E-06 -0.3017485E-06 -0.6415998E-05 -0.3040838E-04  0.2150841E-07  0.5033644E-07 -0.5809116E+02 -0.8296155E+02 -0.1749711E-12 -0.1083578E-12
  0.4040000E+01  0.2249312E+03  0.3650176E+03 -0.1733551E-06 -0.9313226E-07 -0.1189511E-05 -0.3671227E-04 -0.6196113E-07 -0.1550288E-06 -0.5771497E+02 -0.8652571E+02 -0.2770061E-12  0.5684342E-13
  0.4080000E+01  0.2235296E+03  0.3812248E+03 -0.2465266E-06 -0.1825392E-06  0.2030420E-05 -0.8815620E-04 -0.3081248E-07 -0.2190154E-07 -0.5729972E+02 -0.9009089E+02  0.1915679E-13 -0.5329071E-13
  0.4120000E+01  0.2219977E+03  0.3975705E+03 -0.3797626E-07  0.2719462E-06 -0.2455911E-05 -0.7492676E-04 -0.9298259E-07 -0.1035842E-06 -0.5685884E+02 -0.9366557E+02 -0.1112379E-12 -0.1740830E-12
  0.4160000E+01  0.2202909E+03  0.4139202E+03 -0.1432804E-07  0.2160668E-06 -0.1757648E-05 -0.3063749E-04  0.4991049E-07 -0.7314702E-07 -0.5637201E+02 -0.9720484E+02  0.1255406E-12  0.1065814E-12
  0.4200000E+01  0.2184457E+03  0.4303025E+03 -0.1844906E-06 -0.4060566E-06 -0.1859319E-05  0.4953472E-05 -0.7882071E-08  0.4260846E-07 -0.5586177E+02 -0.1007337E+03 -0.1776357E-13 -0.8881784E-14
  0.4240000E+01  0.2164716E+03  0.4466754E+03  0.2108655E-06 -0.5215406E-07  0.9370336E-06  0.5983096E-04  0.1908137E-07 -0.1997887E-07 -0.5532412E+02 -0.1042333E+03 -0.2765084E-13  0.5275780E-12
  0.4280000E+01  0.2143438E+03  0.4629671E+03 -0.3133422E-07  0.7376075E-06 -0.3773162E-06  0.8444744E-04 -0.2699159E-08  0.7282279E-07 -0.5475671E+02 -0.1076915E+03  0.6723593E-13  0.2184919E-12
  0.4320000E+01  0.2120000E+03  0.4790194E+03  0.3138902E-06  0.3501773E-06  0.1031300E-05  0.4572631E-04  0.4742867E-07  0.3178820E-07 -0.5413582E+02 -0.1110532E+03 -0.1069104E-12  0.1474376E-12
  0.4360000E+01  0.2095808E+03  0.4949515E+03 -0.2751246E-06 -0.2793968E-06 -0.5970824E-05  0.2970197E-04  0.2048950E-07 -0.6729579E-07 -0.5349972E+02 -0.1143577E+03  0.7496551E-13  0.2131628E-12
  0.4400000E+01  0.2070882E+03  0.5106966E+03 -0.1608648E-06  0.5923212E-06 -0.7080697E-05  0.8547213E-05  0.2156743E-07 -0.7794597E-07 -0.5285423E+02 -0.1175977E+03 -0.2018587E-13  0.4973799E-13
  0.4440000E+01  0.2044386E+03  0.5260622E+03  0.2282160E-06 -0.8232892E-06 -0.4592112E-06 -0.2180506E-04 -0.3216958E-07  0.1599010E-06 -0.5216586E+02 -0.1207053E+03  0.5601125E-13  0.7389644E-12
  0.4480000E+01  0.2016851E+03  0.5411180E+03 -0.1014476E-06  0.4880130E-06 -0.3821541E-05 -0.2365699E-04  0.3225164E-07 -0.3737796E-07 -0.5145928E+02 -0.1237171E+03 -0.7930164E-13 -0.1421085E-12
  0.4520000E+01  0.1988694E+03  0.5559127E+03 -0.7582450E-07 -0.4097819E-07 -0.1149575E-05 -0.5918276E-04 -0.8398137E-08 -0.1830767E-07 -0.5074730E+02 -0.1266521E+03  0.2750995E-13 -0.5684342E-13
  0.4560000E+01  0.1959122E+03  0.5702297E+03  0.7025767E-07 -0.5252659E-06 -0.3561339E-05 -0.6110803E-04 -0.4097313E-07 -0.9391715E-07 -0.5000639E+02 -0.1294493E+03  0.9115515E-13  0.7815970E-13
  0.4600000E+01  0.1928471E+03  0.5840219E+03 -0.1619691E-07 -0.2495944E-06  0.9657410E-06 -0.5005440E-04 -0.4027579E-08 -0.1786652E-06 -0.4924096E+02 -0.1320883E+03  0.2170245E-12  0.3925749E-12
  0.4640000E+01  0.1897400E+03  0.5974660E+03  0.1493328E-06  0.7450581E-06 -0.6093088E-05 -0.5140528E-04  0.9068476E-07 -0.2731272E-06 -0.4847989E+02 -0.1346449E+03  0.1454775E-12 -0.2469136E-12
  0.4680000E+01  0.1865421E+03  0.6102612E+03  0.2228806E-07  0.5215406E-06 -0.1909361E-05 -0.1497800E-05  0.6224734E-07 -0.2575071E-06 -0.4769267E+02 -0.1370034E+03 -0.2133146E-12  0.8704149E-13
  0.4720000E+01  0.1833045E+03  0.6226292E+03 -0.1026033E-06 -0.1378357E-06 -0.3287598E-05 -0.7244758E-05  0.2930529E-07 -0.1014805E-06 -0.4690804E+02 -0.1392557E+03  0.3387121E-13 -0.5648815E-12
  0.4760000E+01  0.1800102E+03  0.6343945E+03  0.1220893E-06 -0.8046627E-06 -0.5401866E-05 -0.1036911E-04 -0.2674707E-07  0.1065982E-06 -0.4611596E+02 -0.1413461E+03  0.1746502E-12  0.1106670E-11
  0.4800000E+01  0.1766585E+03  0.6454846E+03  0.4346172E-07  0.9089708E-06 -0.7141304E-05  0.1418893E-04  0.1021486E-07  0.4477715E-07 -0.4531126E+02 -0.1432468E+03 -0.7105427E-13  0.2486900E-12
  0.4840000E+01  0.1732799E+03  0.6559901E+03 -0.2447608E-06 -0.1046807E-05 -0.2185096E-05  0.2873898E-04 -0.3735702E-07  0.8895540E-07 -0.4451226E+02 -0.1450110E+03 -0.7633930E-13 -0.2611245E-12
  0.4880000E+01  0.1699125E+03  0.6659008E+03 -0.9160550E-08  0.6332994E-07 -0.7206967E-05 -0.5156267E-05 -0.5657281E-07  0.2153593E-07 -0.4371952E+02 -0.1466149E+03 -0.3348869E-13 -0.9432455E-12
  0.4920000E+01  0.1665664E+03  0.6752007E+03  0.2059510E-06  0.7189810E-06 -0.4451892E-05  0.1005270E-04  0.2216829E-07  0.1122257E-06 -0.4293918E+02 -0.1480698E+03 -0.8520736E-13  0.2948752E-12
  0.4960000E+01  0.1631495E+03  0.6836362E+03 -0.8411946E-07 -0.6332994E-07 -0.6834190E-05  0.1235446E-04  0.5466237E-07 -0.3825662E-06 -0.4214564E+02 -0.1492983E+03 -0.1045759E-12  0.2842171E-13
  0.5000000E+01  0.1597305E+03  0.6913056E+03 -0.1937151E-07  0.2607703E-06 -0.8617388E-05  0.2154452E-04 -0.1076232E-07 -0.1580293E-07 -0.4134909E+02 -0.1503060E+03  0.9876544E-13  0.4423129E-12
  0.5040000E+01  0.1563719E+03  0.6985414E+03 -0.6947962E-07  0.6854534E-06 -0.7095560E-05  0.8658273E-05 -0.3051337E-07  0.2601246E-07 -0.4057986E+02 -0.1512336E+03 -0.4229421E-14  0.5879741E-12
  0.5080000E+01  0.1530655E+03  0.7052010E+03 -0.2874633E-06 -0.1445413E-05 -0.4198881E-05  0.4496519E-04  0.3795350E-08 -0.1809394E-07 -0.3983204E+02 -0.1520344E+03 -0.8182431E-13  0.2167155E-12
  0.5120000E+01  0.1497438E+03  0.7109927E+03 -0.4365575E-08  0.1125038E-05 -0.5809989E-05  0.4975637E-04  0.2666809E-07 -0.3610103E-07 -0.3907912E+02 -0.1526035E+03 -0.5065393E-13  0.2788880E-12
  0.5160000E+01  0.1464681E+03  0.7161842E+03 -0.1097372E-06  0.8828938E-06 -0.2054640E-05  0.5476666E-04  0.2417978E-07 -0.1262715E-06 -0.3834430E+02 -0.1530387E+03  0.7849019E-13  0.1758593E-12
  0.5200000E+01  0.1432378E+03  0.7207509E+03 -0.1002963E-06  0.2272427E-06  0.1481609E-06  0.8196733E-04  0.1391081E-07 -0.1640774E-07 -0.3762791E+02 -0.1533354E+03  0.1441582E-12  0.2806644E-12
  0.5240000E+01  0.1400544E+03  0.7247493E+03 -0.4834346E-07 -0.8195639E-06 -0.4205126E-05  0.6929226E-04 -0.1273093E-07 -0.4178501E-06 -0.3693028E+02 -0.1535160E+03  0.3864593E-13 -0.3641532E-12
  0.5280000E+01  0.1369043E+03  0.7279897E+03 -0.9736554E-07 -0.3278255E-06 -0.5763837E-05  0.7058796E-04 -0.8730201E-08  0.5522315E-07 -0.3624139E+02 -0.1535020E+03 -0.1352453E-12  0.3925749E-12
  0.5320000E+01  0.1338096E+03  0.7306144E+03 -0.5601940E-07  0.4842877E-06 -0.6092329E-05  0.7841084E-04  0.9540292E-09  0.8743382E-07 -0.3557246E+02 -0.1533560E+03  0.8414322E-13 -0.1278977E-12
  0.5360000E+01  0.1308144E+03  0.7327763E+03 -0.9313226E-07  0.1266599E-06 -0.1498196E-06  0.5382975E-04 -0.2924543E-07 -0.5183119E-07 -0.3493492E+02 -0.1531287E+03 -0.1047255E-12  0.1136868E-12
  0.5400000E+01  0.1278751E+03  0.7342164E+03  0.1517711E-07 -0.9089708E-06 -0.5119213E-05  0.6003072E-04 -0.8345953E-07 -0.3334753E-07 -0.3430539E+02 -0.1526954E+03  0.6052771E-13 -0.1456613E-12
  0.5440000E+01  0.1250123E+03  0.7351555E+03 -0.9724103E-07  0.3874302E-06 -0.3537271E-05  0.2352311E-04  0.1611770E-07 -0.1626431E-06 -0.3370106E+02 -0.1521709E+03 -0.2677597E-13  0.7354117E-12
  0.5480000E+01  0.1222353E+03  0.7356296E+03  0.0000000E+00  0.2831221E-06 -0.3187698E-05  0.5523721E-04  0.3116488E-07  0.4666163E-07 -0.3312306E+02 -0.1515601E+03 -0.5186443E-13  0.7478462E-12
  0.5520000E+01  0.1195159E+03  0.7354680E+03 -0.1795158E-06 -0.4209578E-06 -0.3608917E-05  0.1334841E-04 -0.3260291E-07 -0.2262095E-07 -0.3255817E+02 -0.1507850E+03 -0.5020139E-13 -0.5435652E-12
  0.5560000E+01  0.1168672E+03  0.7347647E+03 -0.1420434E-06 -0.5178154E-06 -0.2061305E-05  0.1156190E-04 -0.6202885E-08  0.2196703E-07 -0.3201168E+02 -0.1498886E+03 -0.2939295E-13  0.1353584E-11
  0.5600000E+01  0.1143025E+03  0.7336679E+03  0.1915864E-06 -0.7823110E-06  0.1391537E-05 -0.1633610E-04  0.2797630E-07  0.1052094E-06 -0.3149173E+02 -0.1489329E+03 -0.5709719E-14 -0.9521273E-12
  0.5640000E+01  0.1118208E+03  0.7321230E+03 -0.3566768E-07  0.1441687E-05 -0.1576519E-05  0.1043105E-04 -0.7001013E-09 -0.3966261E-07 -0.3099229E+02 -0.1478714E+03 -0.7181017E-13 -0.4547474E-12
  0.5680000E+01  0.1094447E+03  0.7302950E+03  0.4591027E-07  0.9648502E-06 -0.2822252E-05  0.2468936E-04 -0.1419044E-07  0.3755486E-07 -0.3052239E+02 -0.1467760E+03 -0.5754396E-13 -0.7318590E-12
  0.5720000E+01  0.1070907E+03  0.7277638E+03  0.1211371E-06  0.2533197E-06 -0.4233122E-05  0.2960209E-04 -0.2414446E-07  0.1551243E-06 -0.3005986E+02 -0.1455177E+03 -0.7950129E-13 -0.8117951E-12
  0.5760000E+01  0.1048121E+03  0.7247655E+03 -0.4009861E-07  0.5513430E-06 -0.2636524E-05  0.1008995E-04 -0.1804944E-07 -0.9001451E-07 -0.2961372E+02 -0.1441290E+03  0.1973730E-13  0.8508749E-12
  0.5800000E+01  0.1026329E+03  0.7215103E+03  0.7065206E-07  0.2011657E-06 -0.6441260E-05  0.8422765E-05 -0.5400877E-07  0.1454623E-06 -0.2919301E+02 -0.1427004E+03 -0.3797728E-13 -0.6217249E-12
  0.5840000E+01  0.1005627E+03  0.7181397E+03  0.1403363E-06 -0.9313226E-07 -0.5386959E-05  0.6653601E-05  0.3738926E-07  0.3644741E-06 -0.2880345E+02 -0.1413001E+03 -0.4684228E-13 -0.6821210E-12
  0.5880000E+01  0.9858591E+02  0.7144844E+03 -0.6335527E-07  0.1899898E-06 -0.8094507E-05  0.2774643E-05  0.3093891E-07  0.1329836E-06 -0.2843573E+02 -0.1398382E+03  0.3987740E-13 -0.3304024E-12
  0.5920000E+01  0.9666052E+02  0.7103074E+03 -0.1220788E-06  0.1601875E-06 -0.2747441E-05 -0.4631351E-05 -0.4427687E-07  0.1217541E-07 -0.2807795E+02 -0.1382493E+03 -0.7801567E-14 -0.3286260E-12
  0.5960000E+01  0.9481722E+02  0.7059130E+03  0.3750292E-07 -0.7227063E-06 -0.1581529E-05 -0.1007470E-04 -0.4024827E-07  0.1614435E-06 -0.2774204E+02 -0.1366380E+03 -0.5007180E-13 -0.2167155E-12
  0.6000000E+01  0.9306191E+02  0.7013278E+03 -0.4346172E-07 -0.4693866E-06  0.1228104E-05  0.6083981E-05 -0.1320457E-07  0.4757817E-07 -0.2742859E+02 -0.1350062E+03 -0.1539509E-13  0.5533352E-12
  0.6039999E+01  0.9138303E+02  0.6965693E+03 -0.7647948E-07 -0.1737848E-05 -0.2831514E-05  0.3787107E-05 -0.9652842E-09 -0.5382753E-07 -0.2713516E+02 -0.1333727E+03 -0.1588134E-13 -0.6306067E-13