VARIABLES="w (rad/s)"
"abs(F   1   1)" "angle(F   1   1)"
"abs(F   1   2)" "angle(F   1   2)"
"abs(F   1   3)" "angle(F   1   3)"
"abs(F   1   4)" "angle(F   1   4)"
"abs(F   1   5)" "angle(F   1   5)"
"abs(F   1   6)" "angle(F   1   6)"
Zone t="Diffraction force - beta =   0.000 deg",I=   308,F=POINT
  0.3000000E-01  0.8669077E+02 -0.1570773E+01  0.9798503E-01  0.3141591E+01  0.6234242E+06 -0.2694241E-06  0.4911386E+00 -0.2920534E-08  0.3071007E+03 -0.1570779E+01  0.2443198E-08 -0.2914070E-02
  0.6000000E-01  0.3466489E+03 -0.1570794E+01  0.2339433E+00 -0.1376422E-05  0.6226776E+06 -0.4305151E-05  0.2080197E+00 -0.3141585E+01  0.1227836E+04 -0.1570803E+01  0.6047523E-08  0.1158979E-01
  0.9000000E-01  0.7793077E+03 -0.1570797E+01  0.8031216E-01 -0.3141591E+01  0.6214251E+06 -0.2174104E-04  0.1333786E+00 -0.3141499E+01  0.2760363E+04 -0.1570796E+01  0.2480047E-08 -0.1795583E+00
  0.1200000E+00  0.1384669E+04 -0.1570796E+01  0.1062797E+00 -0.3141550E+01  0.6196616E+06 -0.6851096E-04  0.5223517E-01 -0.3758708E-03  0.4902152E+04 -0.1570795E+01  0.2931395E-08 -0.3072894E+01
  0.1500000E+00  0.2161111E+04 -0.1570797E+01  0.8750636E-01  0.6317633E-04  0.6173744E+06 -0.1666470E-03  0.2205786E+00  0.6004552E-03  0.7648473E+04 -0.1570797E+01  0.4890342E-08 -0.2352836E-01
  0.1800000E+00  0.3107310E+04 -0.1570797E+01  0.2692022E-01  0.3140320E+01  0.6145596E+06 -0.3439714E-03  0.2195393E+00 -0.8782307E-03  0.1099450E+05 -0.1570795E+01  0.5780699E-08 -0.3111144E+01
  0.2100000E+00  0.4225407E+04 -0.1570795E+01  0.6219222E-01  0.2057973E-02  0.6112120E+06 -0.6337931E-03  0.7380768E+00 -0.3141313E+01  0.1494310E+05 -0.1570794E+01  0.1724266E-08 -0.2787144E+01
  0.2400000E+00  0.5507782E+04 -0.1570791E+01  0.8723029E-01 -0.3141012E+01  0.6073254E+06 -0.1074325E-02  0.7739152E+00 -0.1821934E-05  0.1946338E+05 -0.1570791E+01  0.2547827E-08 -0.3069065E+01
  0.2700000E+00  0.6956870E+04 -0.1570787E+01  0.1086514E+00  0.2423107E-02  0.6029096E+06 -0.1708332E-02  0.5862321E-01 -0.3137114E+01  0.2457428E+05 -0.1570787E+01  0.3467663E-08 -0.2781349E+01
  0.3000000E+00  0.8568510E+04 -0.1570778E+01  0.1118077E+00 -0.4651959E-03  0.5979576E+06 -0.2582296E-02  0.3661454E+00 -0.3138720E+01  0.3023681E+05 -0.1570778E+01  0.3954065E-08 -0.3041473E+00
  0.3300000E+00  0.1034577E+05 -0.1570765E+01  0.3184266E+00  0.8116104E-03  0.5924918E+06 -0.3746102E-02  0.8058168E+00  0.3140878E+01  0.3648199E+05 -0.1570766E+01  0.3523112E-08 -0.2882088E+01
  0.3600000E+00  0.1227042E+05 -0.1570744E+01  0.6446426E-01  0.4591887E-02  0.5865131E+06 -0.5251742E-02  0.1466360E+01  0.1262657E-02  0.4323241E+05 -0.1570744E+01  0.3473321E-09 -0.9966935E-01
  0.3900000E+00  0.1436449E+05 -0.1570714E+01  0.9679976E-01 -0.3852288E-02  0.5800354E+06 -0.7153255E-02  0.4245819E+00 -0.3137265E+01  0.5054660E+05 -0.1570714E+01  0.3973826E-08 -0.2830843E+01
  0.4200000E+00  0.1660341E+05 -0.1570670E+01  0.1066990E+00 -0.3135697E+01  0.5730973E+06 -0.9505773E-02  0.2963586E+00  0.3136484E+01  0.5837850E+05 -0.1570670E+01  0.1440805E-08  0.1555645E+01
  0.4500000E+00  0.1898210E+05 -0.1570608E+01  0.2805400E+00 -0.1154845E-02  0.5657045E+06 -0.1236391E-01  0.3904827E+00 -0.3131956E+01  0.6666637E+05 -0.1570608E+01  0.5515258E-08 -0.2758270E+01
  0.4800000E+00  0.2152039E+05 -0.1570525E+01  0.2525394E-01 -0.3107205E+01  0.5578771E+06 -0.1578236E-01  0.1784403E+00  0.3118949E+01  0.7547173E+05 -0.1570525E+01  0.9574879E-08 -0.1523665E+01
  0.5100000E+00  0.2420151E+05 -0.1570414E+01  0.8484943E-01 -0.3617618E-01  0.5496772E+06 -0.1981547E-01  0.3207512E+00  0.4033205E-02  0.8476666E+05 -0.1570414E+01  0.8500489E-08  0.1795221E+01
  0.5400000E+00  0.2699874E+05 -0.1570270E+01  0.1354808E-01 -0.1475305E+00  0.5411168E+06 -0.2451401E-01  0.1073236E+01  0.3131529E+01  0.9445992E+05 -0.1570270E+01  0.9896383E-09  0.2199593E+01
  0.5700000E+00  0.2993043E+05 -0.1570086E+01  0.1824797E+00  0.3133886E+01  0.5322259E+06 -0.2992676E-01  0.5254552E+00 -0.1946967E-01  0.1045558E+06 -0.1570086E+01  0.6021689E-08  0.2940880E+01
  0.6000000E+00  0.3300170E+05 -0.1569855E+01  0.2050459E-01  0.2988682E+01  0.5230372E+06 -0.3610056E-01  0.4218310E+00  0.3113765E+01  0.1150896E+06 -0.1569855E+01  0.3555741E-08 -0.7665870E+00
  0.6299999E+00  0.3619723E+05 -0.1569569E+01  0.1635343E+00 -0.2129076E-01  0.5136018E+06 -0.4307978E-01  0.1194263E+00 -0.3075009E+01  0.1260279E+06 -0.1569569E+01  0.3828510E-08  0.3114983E+01
  0.6600000E+00  0.3949103E+05 -0.1569222E+01  0.1401243E+00 -0.3138853E+01  0.5039757E+06 -0.5090543E-01  0.1736555E+00  0.7713926E-02  0.1372923E+06 -0.1569222E+01  0.7669315E-08  0.1323516E+01
  0.6899999E+00  0.4287364E+05 -0.1568805E+01  0.1840896E+00  0.8737990E-02  0.4941636E+06 -0.5960992E-01  0.7744358E-01 -0.2739871E+01  0.1488128E+06 -0.1568805E+01  0.3405428E-08 -0.1557976E+01
  0.7200000E+00  0.4636643E+05 -0.1568313E+01  0.1435042E+00 -0.3136195E+01  0.4841862E+06 -0.6922403E-01  0.2551390E+00 -0.3079495E+01  0.1606305E+06 -0.1568313E+01  0.1413267E-07 -0.1722741E+01
  0.7500000E+00  0.4996532E+05 -0.1567739E+01  0.1327175E+00 -0.3122129E+01  0.4741095E+06 -0.7978194E-01  0.4206755E+00 -0.3129484E+01  0.1727448E+06 -0.1567739E+01  0.2158839E-08 -0.1435572E+01
  0.7800000E+00  0.5364893E+05 -0.1567078E+01  0.2846483E-01  0.4276444E+00  0.4639719E+06 -0.9130834E-01  0.5644189E+00  0.5242984E-01  0.1851041E+06 -0.1567078E+01  0.1250561E-07 -0.1458854E+01
  0.8100000E+00  0.5739226E+05 -0.1566326E+01  0.1415348E+00  0.3078803E+01  0.4537957E+06 -0.1038241E+00  0.3699740E+00  0.6600687E-01  0.1976380E+06 -0.1566326E+01  0.7124110E-08  0.5193995E+00
  0.8400000E+00  0.6117103E+05 -0.1565478E+01  0.1289267E-01 -0.2324604E+01  0.4436202E+06 -0.1173450E+00  0.5286826E+00  0.6964748E-01  0.2102567E+06 -0.1565478E+01  0.2785239E-08  0.6445459E+00
  0.8700000E+00  0.6499311E+05 -0.1564539E+01  0.1105265E+00 -0.3111483E+01  0.4334593E+06 -0.1318824E+00  0.1147272E+00  0.1972642E-01  0.2229254E+06 -0.1564539E+01  0.4179010E-08 -0.1266665E+01
  0.9000000E+00  0.6886265E+05 -0.1563518E+01  0.7445496E-01 -0.2479598E+00  0.4233271E+06 -0.1474461E+00  0.3769040E+00 -0.2404173E-01  0.2356540E+06 -0.1563516E+01  0.8421877E-08  0.2091657E+01
  0.9299999E+00  0.7276648E+05 -0.1562422E+01  0.6359678E-01 -0.1256735E+00  0.4132464E+06 -0.1640476E+00  0.1982891E+00 -0.5682511E-01  0.2484143E+06 -0.1562418E+01  0.1461362E-07  0.1592706E+01
  0.9600000E+00  0.7668006E+05 -0.1561262E+01  0.8137643E-01  0.1173569E-01  0.4032551E+06 -0.1816977E+00  0.4148794E+00 -0.2265739E-01  0.2611390E+06 -0.1561258E+01  0.7448591E-08  0.1864124E+01
  0.9899999E+00  0.8057970E+05 -0.1560053E+01  0.1186630E+00  0.2992867E+01  0.3933922E+06 -0.2004064E+00  0.4643837E+00  0.1137313E+00  0.2737535E+06 -0.1560050E+01  0.1853185E-07 -0.1395579E+01
  0.1020000E+01  0.8443762E+05 -0.1558813E+01  0.9346043E-01  0.2901640E+01  0.3836640E+06 -0.2201741E+00  0.3669154E+00 -0.2464954E+00  0.2861715E+06 -0.1558813E+01  0.2836657E-07 -0.1629312E+01
  0.1050000E+01  0.8822883E+05 -0.1557565E+01  0.4281822E-01  0.3034227E+01  0.3740738E+06 -0.2409918E+00  0.1207934E+00 -0.9861537E+00  0.2983047E+06 -0.1557571E+01  0.1082224E-07 -0.1776630E+01
  0.1080000E+01  0.9194662E+05 -0.1556357E+01  0.7528794E-01 -0.3081896E+01  0.3646180E+06 -0.2628402E+00  0.7449121E+00  0.4626173E-01  0.3100890E+06 -0.1556364E+01  0.6112428E-08 -0.1190290E+01
  0.1110000E+01  0.9558920E+05 -0.1555244E+01  0.1238002E+00 -0.8229516E-01  0.3553072E+06 -0.2857162E+00  0.2594653E+00 -0.3064933E+01  0.3215047E+06 -0.1555247E+01  0.2816463E-08 -0.2399662E+00
  0.1140000E+01  0.9913640E+05 -0.1554273E+01  0.1163193E+00 -0.1849341E+00  0.3461636E+06 -0.3096287E+00  0.1911080E+00  0.2847235E+01  0.3325038E+06 -0.1554272E+01  0.1078999E-07 -0.1449118E+01
  0.1170000E+01  0.1025620E+06 -0.1553495E+01  0.9578860E-01 -0.2775666E+01  0.3371904E+06 -0.3345789E+00  0.1152376E+00 -0.1267101E+00  0.3430214E+06 -0.1553493E+01  0.5590739E-08  0.2426191E+01
  0.1200000E+01  0.1058402E+06 -0.1552966E+01  0.3605789E-01 -0.2057291E+00  0.3283944E+06 -0.3605595E+00  0.3391615E+00  0.2003429E-01  0.3529815E+06 -0.1552969E+01  0.2115857E-07  0.1573547E+01
  0.1230000E+01  0.1089532E+06 -0.1552758E+01  0.6978915E-01  0.3006654E+01  0.3197749E+06 -0.3875551E+00  0.1550674E+00  0.2465641E+01  0.3623173E+06 -0.1552766E+01  0.2192523E-07  0.1511027E+01
  0.1260000E+01  0.1118902E+06 -0.1552971E+01  0.1167787E-01  0.6938730E+00  0.3113334E+06 -0.4155548E+00  0.2954557E+00  0.3004214E+01  0.3709790E+06 -0.1552975E+01  0.4379523E-08  0.7982991E-01
  0.1290000E+01  0.1146377E+06 -0.1553688E+01  0.1171903E+00 -0.3061653E+01  0.3030877E+06 -0.4445646E+00  0.2154528E+00 -0.2594285E+01  0.3789244E+06 -0.1553686E+01  0.9256664E-08 -0.1551931E+01
  0.1320000E+01  0.1171759E+06 -0.1554987E+01  0.2472495E-01  0.2382988E+01  0.2950404E+06 -0.4745826E+00  0.6894464E+00 -0.1235552E+00  0.3861103E+06 -0.1554983E+01  0.4124537E-08  0.1414928E+01
  0.1350000E+01  0.1194868E+06 -0.1556946E+01  0.2576353E+00 -0.3092481E+01  0.2871894E+06 -0.5055991E+00  0.5602360E+00 -0.1596045E+00  0.3924929E+06 -0.1556947E+01  0.1399894E-07 -0.1506303E+01
  0.1380000E+01  0.1215623E+06 -0.1559670E+01  0.9706356E-01 -0.2934151E+01  0.2795313E+06 -0.5376024E+00  0.3822408E+00  0.3123872E+01  0.3980446E+06 -0.1559674E+01  0.1479460E-07 -0.1772821E+01
  0.1410000E+01  0.1233993E+06 -0.1563269E+01  0.1316153E+00 -0.2911312E+01  0.2720594E+06 -0.5705768E+00  0.1900733E+00  0.1648028E+01  0.4027547E+06 -0.1563266E+01  0.9610608E-08  0.1607144E+01
  0.1440000E+01  0.1249911E+06 -0.1567827E+01  0.1228223E+00 -0.6271433E+00  0.2647732E+06 -0.6045123E+00  0.2877228E+00  0.2948190E+01  0.4066117E+06 -0.1567818E+01  0.4961755E-08  0.1741731E+01
  0.1470000E+01  0.1263343E+06 -0.1573421E+01  0.7705978E-01 -0.8432614E+00  0.2576762E+06 -0.6394182E+00  0.4435549E+00  0.2792767E+01  0.4096100E+06 -0.1573415E+01  0.1448006E-07  0.1649264E+01
  0.1500000E+01  0.1274290E+06 -0.1580139E+01  0.1481094E+00  0.2816191E+01  0.2507722E+06 -0.6752944E+00  0.9936485E-01 -0.2694263E+01  0.4117588E+06 -0.1580137E+01  0.1208591E-07 -0.1445247E+01
  0.1530000E+01  0.1282796E+06 -0.1588083E+01  0.2080785E+00  0.2988922E+01  0.2440569E+06 -0.7121341E+00  0.8545247E-01 -0.3045050E+01  0.4130835E+06 -0.1588075E+01  0.2203973E-07 -0.1628932E+01
  0.1560000E+01  0.1288902E+06 -0.1597323E+01  0.2245301E-01  0.3118209E+01  0.2375237E+06 -0.7499187E+00  0.7923098E-01 -0.1285886E+01  0.4136082E+06 -0.1597309E+01  0.6540271E-08 -0.1490611E+01
  0.1590000E+01  0.1292691E+06 -0.1607921E+01  0.8950245E-01  0.9293520E+00  0.2311659E+06 -0.7886539E+00  0.1162480E+00  0.2489387E+01  0.4133624E+06 -0.1607908E+01  0.1670002E-07 -0.1455520E+01
  0.1620000E+01  0.1294272E+06 -0.1619938E+01  0.4288607E-01 -0.1520196E+01  0.2249788E+06 -0.8283170E+00  0.1486989E+00 -0.1108496E+01  0.4123852E+06 -0.1619928E+01  0.4371395E-07  0.1570796E+01
  0.1650000E+01  0.1293768E+06 -0.1633445E+01  0.1171351E+00 -0.3051575E+01  0.2189574E+06 -0.8688971E+00  0.2949828E+00  0.2939490E+01  0.4107280E+06 -0.1633428E+01  0.7112600E-08 -0.1961180E+01
  0.1680000E+01  0.1291246E+06 -0.1648481E+01  0.5256864E-01 -0.3106100E+01  0.2130970E+06 -0.9103951E+00  0.6761571E+00  0.3041628E+01  0.4084267E+06 -0.1648457E+01  0.4947651E-08  0.2060754E+01
  0.1710000E+01  0.1286853E+06 -0.1665077E+01  0.1509121E+00  0.1337329E+00  0.2074026E+06 -0.9528199E+00  0.3182443E+00  0.1262391E+00  0.4055297E+06 -0.1665055E+01  0.6344958E-07 -0.1580888E+01
  0.1740000E+01  0.1280753E+06 -0.1683273E+01  0.5957421E-01  0.1184368E+01  0.2018686E+06 -0.9961848E+00  0.1159870E+00 -0.1734354E+01  0.4020944E+06 -0.1683247E+01  0.7157051E-07  0.1601300E+01
  0.1770000E+01  0.1273086E+06 -0.1703096E+01  0.9764453E-01  0.2159458E+00  0.1964909E+06 -0.1040463E+01  0.1782807E+00  0.2545543E+01  0.3981719E+06 -0.1703061E+01  0.5122603E-08 -0.1136298E-01
  0.1800000E+01  0.1263966E+06 -0.1724557E+01  0.4924613E-01  0.1131771E+01  0.1912625E+06 -0.1085652E+01  0.1927465E+00 -0.7757616E+00  0.3938090E+06 -0.1724517E+01  0.6827104E-07 -0.1531887E+01
  0.1830000E+01  0.1253567E+06 -0.1747673E+01  0.8004484E-01 -0.3041534E+01  0.1861816E+06 -0.1131759E+01  0.3723885E+00  0.2935604E+00  0.3890597E+06 -0.1747630E+01  0.1764065E-07 -0.1469157E+01
  0.1860000E+01  0.1242015E+06 -0.1772449E+01  0.1531949E+00  0.9493262E-01  0.1812390E+06 -0.1178761E+01  0.1999226E+00  0.2222341E+01  0.3839695E+06 -0.1772397E+01  0.1170086E-07  0.1335922E+01
  0.1890000E+01  0.1229448E+06 -0.1798882E+01  0.6517009E-01  0.2158099E+01  0.1764307E+06 -0.1226643E+01  0.2055059E+00  0.1753739E+01  0.3785870E+06 -0.1798820E+01  0.3536432E-07 -0.1584170E+01
  0.1920000E+01  0.1215962E+06 -0.1826969E+01  0.5080236E-01  0.2520857E+00  0.1717527E+06 -0.1275398E+01  0.7305339E-01  0.1704816E+01  0.3729508E+06 -0.1826896E+01  0.3906567E-07  0.1721860E+01
  0.1950000E+01  0.1201721E+06 -0.1856699E+01  0.3369408E-01  0.3103741E+01  0.1672045E+06 -0.1325060E+01  0.2454085E+00  0.6728020E+00  0.3671000E+06 -0.1856615E+01  0.3060586E-07  0.1712962E+01
  0.1980000E+01  0.1186818E+06 -0.1888058E+01  0.8885611E-01 -0.2951805E+01  0.1627823E+06 -0.1375624E+01  0.1412520E+00  0.4860601E+00  0.3610733E+06 -0.1887959E+01  0.6280906E-07  0.1538819E+01
  0.2010000E+01  0.1171370E+06 -0.1921036E+01  0.4565020E-01  0.3878948E+00  0.1584854E+06 -0.1427105E+01  0.4455546E+00 -0.3744894E+00  0.3549082E+06 -0.1920924E+01  0.8125182E-08  0.1313655E+01
  0.2040000E+01  0.1155471E+06 -0.1955607E+01  0.8375293E-01 -0.1709327E+01  0.1543092E+06 -0.1479492E+01  0.1208088E+00 -0.2164778E+01  0.3486342E+06 -0.1955484E+01  0.1249430E-07 -0.1703963E+01
  0.2070000E+01  0.1139178E+06 -0.1991762E+01  0.6580418E-01 -0.5032490E+00  0.1502472E+06 -0.1532792E+01  0.1382050E+00 -0.7835632E-01  0.3422804E+06 -0.1991625E+01  0.2053658E-07 -0.1277507E+01
  0.2100000E+01  0.1122567E+06 -0.2029483E+01  0.8194740E-01  0.2252048E+00  0.1462977E+06 -0.1586985E+01  0.7610398E-01  0.2730315E+00  0.3358740E+06 -0.2029323E+01  0.1553013E-07  0.1702357E+01
  0.2130000E+01  0.1105727E+06 -0.2068748E+01  0.9750474E-01  0.2864316E+01  0.1424567E+06 -0.1642077E+01  0.3355352E+00  0.6383178E-01  0.3294334E+06 -0.2068568E+01  0.6527195E-08 -0.6827484E+00
  0.2160000E+01  0.1088716E+06 -0.2109524E+01  0.2193220E-01  0.2290377E+01  0.1387174E+06 -0.1698045E+01  0.2170737E+00 -0.2847798E+01  0.3229816E+06 -0.2109317E+01  0.3608891E-08  0.1120223E+01
  0.2190000E+01  0.1071616E+06 -0.2151794E+01  0.1776978E-01 -0.2110210E+01  0.1350801E+06 -0.1754879E+01  0.2293407E-01  0.2626876E+01  0.3165410E+06 -0.2151557E+01  0.8961889E-08 -0.1119685E+00
  0.2220000E+01  0.1054447E+06 -0.2195522E+01  0.6043094E-01  0.7921010E+00  0.1315390E+06 -0.1812554E+01  0.3609616E+00  0.2621701E+01  0.3101173E+06 -0.2195263E+01  0.2043910E-08 -0.3487710E+00
  0.2250000E+01  0.1037291E+06 -0.2240707E+01  0.3567376E-01 -0.3273311E+00  0.1280938E+06 -0.1871134E+01  0.7221581E-01 -0.1652129E+01  0.3037350E+06 -0.2240417E+01  0.1049217E-07 -0.1054403E+01
  0.2280000E+01  0.1020159E+06 -0.2287304E+01  0.5687877E-01  0.3034888E+01  0.1247362E+06 -0.1930606E+01  0.2970114E+00 -0.1409415E+00  0.2973955E+06 -0.2286987E+01  0.7137507E-07 -0.1449805E+01
  0.2310000E+01  0.1003101E+06 -0.2335301E+01  0.1299249E-01  0.3981450E+00  0.1214663E+06 -0.1991042E+01  0.2721269E+00 -0.2930864E+01  0.2911165E+06 -0.2334957E+01  0.2574615E-07 -0.2166010E+01
  0.2340000E+01  0.9861375E+05 -0.2384679E+01  0.5602343E-01  0.1624383E+00  0.1182790E+06 -0.2052445E+01  0.1077306E+00  0.2340785E+01  0.2849063E+06 -0.2384302E+01  0.3291678E-07 -0.8943983E+00
  0.2370000E+01  0.9692925E+05 -0.2435408E+01  0.2105046E-01 -0.5714912E+00  0.1151721E+06 -0.2114818E+01  0.1717647E+00 -0.3220912E+00  0.2787723E+06 -0.2435008E+01  0.3877422E-07  0.1251657E+01
  0.2400000E+01  0.9525750E+05 -0.2487471E+01  0.3838668E-01 -0.2910464E+01  0.1121399E+06 -0.2178189E+01  0.1911414E+00 -0.4139277E+00  0.2727139E+06 -0.2487043E+01  0.6540719E-07 -0.1304232E+01
  0.2430000E+01  0.9360480E+05 -0.2540866E+01  0.1638165E-01  0.9281275E+00  0.1091847E+06 -0.2242571E+01  0.3013479E+00  0.2998345E+01  0.2667482E+06 -0.2540413E+01  0.1724176E-07  0.9799845E+00
  0.2460000E+01  0.9196986E+05 -0.2595566E+01  0.3801728E-02 -0.1676645E+00  0.1062999E+06 -0.2307968E+01  0.6163412E-01  0.1902936E+01  0.2608740E+06 -0.2595097E+01  0.3252904E-07 -0.1056311E+01
  0.2490000E+01  0.9035452E+05 -0.2651539E+01  0.2766792E-01 -0.1215457E+01  0.1034785E+06 -0.2374338E+01  0.1670825E-01  0.2359113E+01  0.2550905E+06 -0.2651050E+01  0.4997253E-07  0.1473967E+01
  0.2520000E+01  0.8876136E+05 -0.2708757E+01  0.2097888E-01 -0.1127719E+01  0.1007170E+06 -0.2441654E+01  0.8641758E-01 -0.1841568E+01  0.2494077E+06 -0.2708272E+01  0.5434894E-07  0.1722387E+01
  0.2550000E+01  0.8719002E+05 -0.2767235E+01  0.1125532E-01  0.2911309E+01  0.9800778E+05 -0.2509880E+01  0.8985062E-01  0.2541467E+01  0.2438244E+06 -0.2766745E+01  0.3405964E-07 -0.1656350E+01
  0.2580000E+01  0.8564030E+05 -0.2826951E+01  0.2865656E-01  0.1908086E+01  0.9532488E+05 -0.2579020E+01  0.1242049E+00 -0.2572673E+01  0.2383382E+06 -0.2826478E+01  0.6428508E-07 -0.9314150E+00
  0.2610000E+01  0.8411559E+05 -0.2887895E+01  0.3643868E-01 -0.2252450E+01  0.9263593E+05 -0.2649494E+01  0.1573364E+00  0.2677065E+00  0.2329593E+06 -0.2887425E+01  0.2310508E-07 -0.5847055E+00
  0.2640000E+01  0.8261145E+05 -0.2950031E+01  0.2346086E-01 -0.2076277E+01  0.8988653E+05 -0.2721644E+01  0.8953136E-01 -0.1144728E+00  0.2276715E+06 -0.2949578E+01  0.2608624E-07 -0.2542063E+01
  0.2670000E+01  0.8113058E+05 -0.3013363E+01  0.2343551E-01  0.2940454E+01  0.8700553E+05 -0.2796308E+01  0.3640302E-01  0.3107288E+01  0.2224879E+06 -0.3012949E+01  0.2714819E-07  0.7057194E+00
  0.2700000E+01  0.7967291E+05 -0.3077880E+01  0.2940117E-02  0.2282589E+01  0.8382995E+05 -0.2875023E+01  0.5366642E-01  0.9704691E+00  0.2174016E+06 -0.3077511E+01  0.2143578E-07  0.2792320E+00
  0.2730000E+01  0.7823686E+05  0.3139623E+01  0.4702210E-02  0.2502584E+01  0.7988487E+05 -0.2961772E+01  0.4359112E-01  0.3048692E+01  0.2124134E+06  0.3139928E+01  0.2446495E-07 -0.1608874E+01
  0.2760000E+01  0.7682306E+05  0.3072771E+01  0.1752638E-01 -0.3052441E+01  0.7316032E+05 -0.3072582E+01  0.7883213E-01  0.3074275E+01  0.2075138E+06  0.3072983E+01  0.2483667E-07 -0.1833965E+01
  0.2790000E+01  0.7543060E+05  0.3004741E+01  0.7173828E-02  0.2206075E+01  0.2987418E+05  0.2964900E+01  0.6271934E-01 -0.4088967E+00  0.2027052E+06  0.3004852E+01  0.2424307E-07  0.2397802E+01
  0.2820000E+01  0.7406383E+05  0.2935493E+01  0.1501707E-01  0.6649964E+00  0.9340303E+05 -0.2978329E+01  0.3406741E-01  0.3009631E+01  0.1979957E+06  0.2935463E+01  0.1339092E-07  0.1475020E+01
  0.2850000E+01  0.7271673E+05  0.2865040E+01  0.9115402E-02 -0.2500987E+01  0.8357947E+05  0.3139276E+01  0.2348093E-01 -0.2066069E+01  0.1933677E+06  0.2864859E+01  0.2062895E-07  0.2756894E+01
  0.2880000E+01  0.7138619E+05  0.2793400E+01  0.2176028E-01 -0.1964641E+00  0.7931819E+05  0.3037466E+01  0.1817779E-01 -0.1558594E+01  0.1888058E+06  0.2793021E+01  0.1375864E-07 -0.9745861E-01
  0.2910000E+01  0.7007492E+05  0.2720513E+01  0.1861702E-01  0.1752431E+00  0.7634192E+05  0.2947558E+01  0.6195579E-01 -0.5062937E-01  0.1843162E+06  0.2719918E+01  0.2582713E-07 -0.1340577E+01
  0.2940000E+01  0.6877966E+05  0.2646334E+01  0.8231979E-02  0.2580727E+00  0.7389146E+05  0.2861219E+01  0.1553412E-01 -0.5425261E+00  0.1798844E+06  0.2645451E+01  0.2830700E-07 -0.1606532E+01
  0.2970000E+01  0.6749386E+05  0.2570792E+01  0.1784051E-03 -0.1598361E+01  0.7174255E+05  0.2776335E+01  0.4579716E-01  0.3053929E+01  0.1754824E+06  0.2569588E+01  0.3904206E-08 -0.2426094E+01
  0.3000000E+01  0.6621856E+05  0.2493733E+01  0.1266259E-01  0.4869447E+00  0.6979019E+05  0.2692664E+01  0.4150220E-01  0.3701307E-01  0.1711080E+06  0.2492109E+01  0.8291898E-08  0.1149543E+01
  0.3030000E+01  0.6493252E+05  0.2415011E+01  0.1398560E-01 -0.2250451E-01  0.6795718E+05  0.2609799E+01  0.9187119E-01  0.8587422E-02  0.1666751E+06  0.2412909E+01  0.5566996E-07 -0.1541777E+01
  0.3060000E+01  0.6361775E+05  0.2334168E+01  0.7725358E-02 -0.7537418E-01  0.6619515E+05  0.2527266E+01  0.3424963E-01  0.1543014E-01  0.1621026E+06  0.2331394E+01  0.1224355E-07 -0.1513716E+01
  0.3090000E+01  0.6222779E+05  0.2250244E+01  0.2322299E-01 -0.2513511E-01  0.6447510E+05  0.2444650E+01  0.3363147E-01  0.3124298E+01  0.1571765E+06  0.2246618E+01  0.5475548E-08  0.2333642E+01
  0.3120000E+01  0.6064638E+05  0.2160820E+01  0.8693687E-02 -0.2926409E+01  0.6278874E+05  0.2361530E+01  0.3733606E-01 -0.3016219E+01  0.1513618E+06  0.2155728E+01  0.1866699E-07 -0.1192316E+01
  0.3150000E+01  0.5843550E+05  0.2057377E+01  0.7068600E-02 -0.7873795E-01  0.6113055E+05  0.2277613E+01  0.3269937E-01 -0.7583082E+00  0.1427044E+06  0.2049218E+01  0.1559773E-07 -0.1182320E+01
  0.3180000E+01  0.5174397E+05  0.1873787E+01  0.4115609E-02 -0.2227846E+00  0.5950098E+05  0.2192689E+01  0.7242581E-02 -0.1835251E+01  0.1147676E+06  0.1851556E+01  0.3223026E-07 -0.1383230E+01
  0.3210000E+01  0.6621152E+05  0.2170940E+01  0.1819545E-01  0.2991363E+01  0.5790533E+05  0.2106617E+01  0.1389668E-01 -0.2948045E+01  0.1867410E+06  0.2195839E+01  0.2043470E-07  0.1343047E+01
  0.3240000E+01  0.6073055E+05  0.1938776E+01  0.1427089E-01 -0.2885393E+01  0.5635217E+05  0.2019254E+01  0.9418090E-02 -0.9066975E+00  0.1585315E+06  0.1946885E+01  0.9116436E-08 -0.6278574E+00
  0.3270000E+01  0.5868316E+05  0.1827493E+01  0.4039831E-02 -0.2112965E-01  0.5484567E+05  0.1930586E+01  0.1394271E-01 -0.2479623E+01  0.1501050E+06  0.1832471E+01  0.1986110E-07  0.3106416E+01
  0.3300000E+01  0.5724082E+05  0.1731079E+01  0.7969071E-02  0.3109270E+00  0.5338118E+05  0.1840584E+01  0.2459101E-01  0.3534316E+00  0.1447060E+06  0.1734953E+01  0.5438602E-08  0.9647394E-01
  0.3330000E+01  0.5601662E+05  0.1638787E+01  0.1631553E-01 -0.2926201E+01  0.5195788E+05  0.1749373E+01  0.2440802E-01 -0.1245212E-01  0.1403640E+06  0.1642242E+01  0.1749738E-07  0.1033098E+00
  0.3360000E+01  0.5489875E+05  0.1547820E+01  0.1319383E-01 -0.2346010E+01  0.5057220E+05  0.1656797E+01  0.4618805E-01 -0.2961794E+01  0.1365268E+06  0.1551103E+01  0.2856449E-07 -0.2353313E+01
  0.3390000E+01  0.5384705E+05  0.1457106E+01  0.1361172E-01  0.2214882E+00  0.4922739E+05  0.1562827E+01  0.1191771E-01 -0.3887990E+00  0.1329918E+06  0.1460326E+01  0.3652383E-07  0.1375120E+01
  0.3420000E+01  0.5284374E+05  0.1366103E+01  0.1231159E-01 -0.2299597E+01  0.4789914E+05  0.1467626E+01  0.2083746E-01 -0.1607733E+01  0.1296587E+06  0.1369318E+01  0.5710839E-07  0.2142685E+01
  0.3450000E+01  0.5188060E+05  0.1274538E+01  0.9339721E-02 -0.2472204E+01  0.4657198E+05  0.1371408E+01  0.1572385E-01 -0.2736463E+01  0.1264876E+06  0.1277689E+01  0.1803996E-07 -0.1112921E+01
  0.3480000E+01  0.5095054E+05  0.1182312E+01  0.1914266E-01  0.2330804E+01  0.4519314E+05  0.1274279E+01  0.2700737E-01 -0.9385069E+00  0.1234485E+06  0.1185362E+01  0.2649258E-07  0.1086267E+01
  0.3510000E+01  0.5004746E+05  0.1089351E+01  0.5334715E-02 -0.2199008E+01  0.4366641E+05  0.1175511E+01  0.1647882E-01  0.2746877E+01  0.1205255E+06  0.1092287E+01  0.1706026E-07  0.1659622E+01
  0.3540000E+01  0.4916780E+05  0.9955724E+00  0.5998327E-02  0.2573716E+01  0.4188880E+05  0.1073121E+01  0.5366779E-01  0.1650493E+01  0.1176972E+06  0.9984563E+00  0.8339963E-08  0.1912411E+01
  0.3570000E+01  0.4830939E+05  0.9009681E+00  0.1095768E-01  0.1643096E+01  0.3952647E+05  0.9629485E+00  0.2571071E-01 -0.1018673E+00  0.1149549E+06  0.9038185E+00  0.2584803E-07 -0.2336456E+00
  0.3600000E+01  0.4746763E+05  0.8055539E+00  0.6345438E-02 -0.2680902E+01  0.3532843E+05  0.8307296E+00  0.5603263E-02 -0.1312330E+01  0.1122860E+06  0.8084493E+00  0.4762595E-07 -0.1343975E+01
  0.3630000E+01  0.4663853E+05  0.7092665E+00  0.1023526E-01  0.3085390E+01  0.1552522E+05  0.5726585E+00  0.6204058E-02 -0.2777078E+01  0.1096663E+06  0.7123186E+00  0.6109389E-07 -0.1477290E+01
  0.3660000E+01  0.4582322E+05  0.6120895E+00  0.1441065E-01 -0.7170122E+00  0.5591446E+05  0.9358128E+00  0.3623522E-01 -0.2045157E+01  0.1070917E+06  0.6153167E+00  0.2799377E-07 -0.3031165E+01
  0.3690000E+01  0.4501964E+05  0.5139863E+00  0.8880737E-02 -0.1319505E+01  0.4576108E+05  0.7016366E+00  0.1240031E-01  0.8066038E+00  0.1045583E+06  0.5173964E+00  0.4519918E-07  0.5741616E+00
  0.3720000E+01  0.4422714E+05  0.4148426E+00  0.9085060E-02  0.2386090E+01  0.4248932E+05  0.5694072E+00  0.5063394E-01  0.1462014E+01  0.1020431E+06  0.4184403E+00  0.3935002E-07  0.1643343E+01
  0.3750000E+01  0.4345011E+05  0.3145518E+00  0.8693645E-02 -0.2419280E+01  0.4051901E+05  0.4531565E+00  0.2347209E-01 -0.4375963E+00  0.9956598E+05  0.3182409E+00  0.4166065E-07 -0.1884704E+01
  0.3780000E+01  0.4268128E+05  0.2129956E+00  0.1805339E-02  0.2764459E+01  0.3905179E+05  0.3418464E+00  0.9370251E-02  0.3846093E+00  0.9710659E+05  0.2166968E+00  0.2468576E-07  0.2251798E+01
  0.3810000E+01  0.4191755E+05  0.1099826E+00  0.5879802E-02 -0.4661863E+00  0.3783229E+05  0.2327868E+00  0.2682082E-01  0.1881777E+01  0.9464347E+05  0.1134331E+00  0.3427112E-07 -0.1465297E+01
  0.3840000E+01  0.4115758E+05  0.5190203E-02  0.4933228E-02 -0.6301039E+00  0.3676696E+05  0.1249794E+00  0.2493266E-01 -0.2883052E+01  0.9218736E+05  0.8099677E-02  0.5342071E-07  0.1480235E+01
  0.3870000E+01  0.4045168E+05 -0.1041145E+00  0.4353975E-02  0.3061944E+01  0.3579510E+05  0.1766077E-01  0.1465645E-01 -0.2952038E+01  0.8991907E+05 -0.1041160E+00  0.5058689E-07 -0.1557563E+01
  0.3900000E+01  0.3934592E+05 -0.2069639E+00  0.6397272E-02  0.6533551E+00  0.3488274E+05 -0.8921090E-01  0.9303591E-02 -0.5423422E+00  0.8606035E+05 -0.2036718E+00  0.6466777E-07  0.1655507E+01
  0.3930000E+01  0.3853884E+05 -0.3201657E+00  0.1001967E-01 -0.2730548E+01  0.3400791E+05 -0.1960852E+00  0.1803218E-01  0.2874378E+00  0.8329058E+05 -0.3190208E+00  0.2220209E-07  0.2440644E+01
  0.3960000E+01  0.3746169E+05 -0.4404712E+00  0.4785445E-02  0.4717803E+00  0.3315878E+05 -0.3031748E+00  0.2960797E-02  0.1789191E+01  0.7931568E+05 -0.4417519E+00  0.2578704E-07  0.9182663E+00
  0.3990000E+01  0.3562871E+05 -0.5849950E+00  0.4952939E-02  0.3035976E+01  0.3233436E+05 -0.4109761E+00  0.5318350E-02  0.2652997E+01  0.7188244E+05 -0.5924764E+00  0.1385858E-07  0.1598100E+01
  0.4020000E+01  0.2127891E+05 -0.9984283E+00  0.3989469E-02 -0.1377687E+00  0.3151952E+05 -0.5194404E+00  0.2256448E-02 -0.5555447E-01  0.1427739E+05 -0.1044927E+01  0.2679934E-07 -0.3063322E+01
  0.4050000E+01  0.4047582E+05 -0.5841357E+00  0.7589709E-02  0.5663724E-01  0.3071028E+05 -0.6289082E+00  0.2352296E-01  0.2954165E+01  0.9837584E+05 -0.5690266E+00  0.1741395E-07  0.1756964E+01
  0.4080000E+01  0.3809936E+05 -0.7683895E+00  0.2567002E-02 -0.1439001E+00  0.2990593E+05 -0.7399890E+00  0.2825775E-02  0.2254935E+01  0.8712043E+05 -0.7616268E+00  0.2958509E-07  0.1603265E+01
  0.4110001E+01  0.3697459E+05 -0.8997554E+00  0.4321572E-02 -0.4863420E+00  0.2911379E+05 -0.8531526E+00  0.2849495E-02 -0.1309836E+01  0.8269159E+05 -0.8962218E+00  0.4047861E-07  0.1107149E+01
  0.4140000E+01  0.3614461E+05 -0.1020512E+01  0.9792604E-02  0.2900770E+01  0.2835447E+05 -0.9702085E+00  0.1762459E-01 -0.3104390E+01  0.7979105E+05 -0.1018412E+01  0.3477011E-07 -0.1851296E+01
  0.4170000E+01  0.3543879E+05 -0.1137927E+01  0.3021417E-02  0.2058372E+01  0.2765640E+05 -0.1102934E+01  0.1121994E-01  0.2375036E+01  0.7749892E+05 -0.1136625E+01  0.1238135E-07  0.1300729E+01
  0.4200000E+01  0.3479209E+05 -0.1254148E+01  0.7084967E-02 -0.4711201E-03  0.2639817E+05 -0.1176568E+01  0.1073593E-01 -0.5424637E+00  0.7548416E+05 -0.1253107E+01  0.6941011E-07 -0.1543119E+01
  0.4230000E+01  0.3417893E+05 -0.1370059E+01  0.2893948E-02 -0.8433943E+00  0.2592754E+05 -0.1306998E+01  0.9574872E-02 -0.5513710E+00  0.7362534E+05 -0.1368879E+01  0.3561172E-07  0.1850667E+01
  0.4260000E+01  0.3359211E+05 -0.1486160E+01  0.2269186E-02  0.1909791E+01  0.2524537E+05 -0.1430026E+01  0.1254119E-01  0.2204868E+01  0.7187504E+05 -0.1484682E+01  0.1767913E-06  0.1583637E+01
  0.4290000E+01  0.3302253E+05 -0.1602713E+01  0.8151350E-02  0.2951442E+01  0.2449254E+05 -0.1552588E+01  0.3290596E-02  0.2820186E+01  0.7018707E+05 -0.1600762E+01  0.8649667E-07 -0.1572142E+01
  0.4320000E+01  0.3246715E+05 -0.1719906E+01  0.7155489E-02 -0.1993363E+00  0.2366941E+05 -0.1677200E+01  0.7624188E-02 -0.2376368E+01  0.6854720E+05 -0.1717507E+01  0.9711876E-07 -0.1482579E+01
  0.4350000E+01  0.3192558E+05 -0.1837891E+01  0.1483142E-02 -0.6074204E+00  0.2261660E+05 -0.1806357E+01  0.3619614E-02  0.1497055E+01  0.6695335E+05 -0.1835080E+01  0.3046597E-07 -0.1427008E+01
  0.4380000E+01  0.3139535E+05 -0.1956822E+01  0.1032544E-02 -0.2798227E+01  0.2073789E+05 -0.1947538E+01  0.1042451E-02  0.3116692E+01  0.6539901E+05 -0.1953734E+01  0.9689672E-07  0.1585214E+01
  0.4410000E+01  0.3087153E+05 -0.2076941E+01  0.2582490E-02  0.2261242E+00  0.1179041E+05 -0.2165900E+01  0.2181508E-02  0.2856664E+01  0.6386689E+05 -0.2073764E+01  0.6013542E-07  0.1628906E+01
  0.4440000E+01  0.3034839E+05 -0.2199411E+01  0.5634892E-02 -0.2399631E+01  0.3033632E+05 -0.1996646E+01  0.1163305E-01 -0.1714996E+01  0.6234597E+05 -0.2197006E+01  0.1058390E-06  0.1538893E+01
  0.4470000E+01  0.2960347E+05 -0.2300147E+01  0.3986398E-02  0.2027403E+01  0.2541906E+05 -0.2201641E+01  0.3368869E-02  0.1207441E+01  0.6006173E+05 -0.2287862E+01  0.2554019E-07 -0.2618030E+01
  0.4500000E+01  0.2935521E+05 -0.2436172E+01  0.6561560E-02 -0.1996532E+01  0.2385111E+05 -0.2341670E+01  0.6786220E-02 -0.2885196E+01  0.5942987E+05 -0.2429701E+01  0.1861519E-07  0.1527006E+01
  0.4530000E+01  0.2886233E+05 -0.2560871E+01  0.3152407E-02  0.2652503E+01  0.2286988E+05 -0.2473241E+01  0.6064446E-02 -0.2979329E+01  0.5798471E+05 -0.2554897E+01  0.5498906E-07  0.1430611E+01