VARIABLES="w (rad/s)"
"abs(F   1   1)" "angle(F   1   1)"
"abs(F   1   2)" "angle(F   1   2)"
"abs(F   1   3)" "angle(F   1   3)"
"abs(F   1   4)" "angle(F   1   4)"
"abs(F   1   5)" "angle(F   1   5)"
"abs(F   1   6)" "angle(F   1   6)"
Zone t="FKforce - beta =   0.000",I=   308,F=POINT
  0.3000000E-01  0.6858803E+02 -0.1570767E+01  0.9800577E-01 -0.3141593E+01  0.6236034E+06 -0.1502414E-11  0.4911823E+00  0.3187790E-06  0.2429573E+03 -0.1570775E+01  0.2444722E-08 -0.2092634E-03
  0.6000000E-01  0.2743017E+03 -0.1570793E+01  0.2337279E+00  0.1793090E-06  0.6233971E+06 -0.9053321E-11  0.2088213E+00  0.3141590E+01  0.9715710E+03 -0.1570804E+01  0.6053773E-08  0.7624552E-02
  0.9000000E-01  0.6169866E+03 -0.1570797E+01  0.8046103E-01  0.3141571E+01  0.6230529E+06  0.1017641E-10  0.1335750E+00  0.3141582E+01  0.2185075E+04 -0.1570796E+01  0.2480800E-08 -0.1707539E+00
  0.1200000E+00  0.1096386E+04 -0.1570796E+01  0.1063647E+00  0.3141589E+01  0.6225722E+06  0.1598847E-10  0.4861927E-01 -0.7574054E-04  0.3882181E+04 -0.1570795E+01  0.2922475E-08 -0.3050595E+01
  0.1500000E+00  0.1712139E+04 -0.1570798E+01  0.8743906E-01  0.1559322E-04  0.6219504E+06  0.4422787E-10  0.2256906E+00  0.7237961E-05  0.6061074E+04 -0.1570797E+01  0.4890430E-08  0.2008658E-01
  0.1800000E+00  0.2463774E+04 -0.1570798E+01  0.2645159E-01 -0.3141569E+01  0.6211914E+06 -0.1712746E-10  0.2118545E+00  0.2317597E-04  0.8719414E+04 -0.1570796E+01  0.5822724E-08 -0.3115661E+01
  0.2100000E+00  0.3350712E+04 -0.1570797E+01  0.6185007E-01 -0.1009471E-03  0.6202905E+06 -0.5510848E-10  0.7426274E+00  0.3141589E+01  0.1185435E+05 -0.1570796E+01  0.1736213E-08 -0.2789689E+01
  0.2400000E+00  0.4372250E+04 -0.1570796E+01  0.8453131E-01  0.3141577E+01  0.6192461E+06 -0.9500226E-10  0.7544346E+00  0.0000000E+00  0.1546248E+05 -0.1570796E+01  0.2636468E-08 -0.2901969E+01
  0.2700000E+00  0.5527595E+04 -0.1570797E+01  0.1046124E+00 -0.5697668E-06  0.6180575E+06 -0.1976993E-10  0.6962347E-01  0.3141301E+01  0.1953980E+05 -0.1570797E+01  0.3406516E-08 -0.2846863E+01
  0.3000000E+00  0.6815795E+04 -0.1570796E+01  0.1091146E+00  0.0000000E+00  0.6167244E+06  0.1182961E-09  0.3656812E+00  0.3141492E+01  0.2408178E+05 -0.1570796E+01  0.3825412E-08 -0.2292937E+00
  0.3300000E+00  0.8235746E+04 -0.1570796E+01  0.3152852E+00 -0.5104348E-05  0.6152419E+06  0.1963758E-09  0.7869487E+00  0.3141591E+01  0.2908333E+05 -0.1570797E+01  0.3728934E-08 -0.2887149E+01
  0.3600000E+00  0.9786325E+04 -0.1570796E+01  0.5639982E-01 -0.1173074E-03  0.6136118E+06 -0.1039370E-09  0.1465710E+01  0.1131025E-04  0.3453876E+05 -0.1570796E+01  0.1013868E-08 -0.8107734E+00
  0.3900000E+00  0.1146612E+05 -0.1570796E+01  0.1037955E+00  0.1274836E-03  0.6118271E+06  0.1293747E-09  0.4383404E+00  0.3141569E+01  0.4044164E+05 -0.1570796E+01  0.3881299E-08 -0.2998635E+01
  0.4200000E+00  0.1327362E+05 -0.1570796E+01  0.9103584E-01 -0.3141499E+01  0.6098892E+06 -0.3883801E-09  0.2710108E+00 -0.3141414E+01  0.4678529E+05 -0.1570796E+01  0.2029992E-08  0.1570796E+01
  0.4500000E+00  0.1520723E+05 -0.1570796E+01  0.2828946E+00 -0.6952954E-04  0.6077932E+06  0.2235935E-09  0.3757485E+00  0.3141492E+01  0.5356176E+05 -0.1570796E+01  0.5187038E-08 -0.2801211E+01
  0.4800000E+00  0.1726508E+05 -0.1570796E+01  0.1986456E-01 -0.3140935E+01  0.6055372E+06  0.2334823E-09  0.1139829E+00 -0.3140903E+01  0.6076320E+05 -0.1570796E+01  0.9621886E-08 -0.1510264E+01
  0.5100000E+00  0.1944514E+05 -0.1570796E+01  0.1054044E+00  0.7068569E-04  0.6031198E+06  0.7668992E-10  0.2794358E+00 -0.1724026E-03  0.6838027E+05 -0.1570796E+01  0.9671420E-08  0.1801542E+01
  0.5400000E+00  0.2174532E+05 -0.1570796E+01  0.1825905E-01 -0.7344875E-03  0.6005350E+06  0.3612794E-10  0.1012509E+01  0.3141567E+01  0.7640373E+05 -0.1570796E+01  0.1488854E-08  0.1649068E+01
  0.5700000E+00  0.2416315E+05 -0.1570796E+01  0.1717296E+00  0.3141361E+01  0.5977809E+06 -0.1715010E-10  0.5530918E+00  0.9925275E-04  0.8482293E+05 -0.1570796E+01  0.6247773E-08  0.2769737E+01
  0.6000000E+00  0.2669606E+05 -0.1570796E+01  0.1876975E-01 -0.3140583E+01  0.5948554E+06 -0.4517026E-09  0.4052560E+00 -0.3141555E+01  0.9362699E+05 -0.1570796E+01  0.3132957E-08 -0.6137701E+00
  0.6299999E+00  0.2934125E+05 -0.1570796E+01  0.1632752E+00 -0.7155103E-04  0.5917534E+06  0.5511698E-09  0.6433573E-01  0.3140621E+01  0.1028035E+06 -0.1570796E+01  0.3968807E-08  0.3068195E+01
  0.6600000E+00  0.3209566E+05 -0.1570796E+01  0.1286635E+00  0.3141575E+01  0.5884724E+06  0.5866547E-09  0.2970023E+00  0.1061637E-03  0.1123405E+06 -0.1570796E+01  0.6621937E-08  0.1211511E+01
  0.6899999E+00  0.3495608E+05 -0.1570796E+01  0.1878600E+00  0.2665171E-04  0.5850088E+06  0.7906412E-10  0.1258585E+00 -0.3140647E+01  0.1222242E+06 -0.1570796E+01  0.4808390E-08 -0.1692148E+01
  0.7200000E+00  0.3791887E+05 -0.1570796E+01  0.1525893E+00  0.3141386E+01  0.5813598E+06 -0.1262303E-08  0.3512923E+00 -0.3141311E+01  0.1324403E+06 -0.1570796E+01  0.1284772E-07 -0.1827313E+01
  0.7500000E+00  0.4098048E+05 -0.1570796E+01  0.1239924E+00 -0.3141395E+01  0.5775199E+06  0.4623716E-09  0.5074779E+00 -0.3141251E+01  0.1429737E+06 -0.1570796E+01  0.1076842E-08 -0.1570796E+01
  0.7800000E+00  0.4413666E+05 -0.1570796E+01  0.2542162E-01 -0.6002288E-03  0.5734894E+06 -0.2943391E-09  0.5580359E+00 -0.1869201E-04  0.1538074E+06 -0.1570796E+01  0.1331496E-07 -0.1430445E+01
  0.8100000E+00  0.4738298E+05 -0.1570796E+01  0.1283622E+00  0.3141385E+01  0.5692611E+06  0.1091448E-08  0.3755398E+00 -0.4912299E-03  0.1649262E+06 -0.1570796E+01  0.7422390E-08  0.5303324E+00
  0.8400000E+00  0.5071513E+05 -0.1570796E+01  0.1811556E-01 -0.2197885E-02  0.5648352E+06  0.1455411E-08  0.5305057E+00  0.1792053E-03  0.1763114E+06 -0.1570796E+01  0.2614166E-08  0.2017623E+00
  0.8700000E+00  0.5412796E+05 -0.1570796E+01  0.1223579E+00  0.3140920E+01  0.5602038E+06  0.2366295E-08  0.8533281E-01 -0.1196524E-02  0.1879443E+06 -0.1570796E+01  0.4250754E-08 -0.1543406E+01
  0.9000000E+00  0.5761621E+05 -0.1570796E+01  0.9531358E-01 -0.7779394E-03  0.5553676E+06  0.7873339E-09  0.4424555E+00 -0.7111516E-03  0.1998046E+06 -0.1570796E+01  0.7866653E-08  0.1998036E+01
  0.9299999E+00  0.6117459E+05 -0.1570796E+01  0.4904034E-01 -0.9431666E-03  0.5503208E+06 -0.1872444E-08  0.2664958E+00  0.9919354E-03  0.2118736E+06 -0.1570796E+01  0.1884463E-07  0.1638803E+01
  0.9600000E+00  0.6479687E+05 -0.1570796E+01  0.9684229E-01  0.1107867E-03  0.5450618E+06  0.1469717E-09  0.4395048E+00  0.5917002E-03  0.2241273E+06 -0.1570796E+01  0.6107368E-08  0.1762584E+01
  0.9899999E+00  0.6847702E+05 -0.1570796E+01  0.1012077E+00  0.3141303E+01  0.5395884E+06 -0.3711563E-10  0.6332695E+00  0.3684880E-03  0.2365442E+06 -0.1570796E+01  0.1742316E-07 -0.1524008E+01
  0.1020000E+01  0.7220849E+05 -0.1570796E+01  0.1062617E+00 -0.3141065E+01  0.5338953E+06  0.8270370E-09  0.3947537E+00  0.3548312E-04  0.2491011E+06 -0.1570796E+01  0.3045351E-07 -0.1597559E+01
  0.1050000E+01  0.7598418E+05 -0.1570796E+01  0.5187370E-01  0.3140871E+01  0.5279820E+06  0.1779169E-08  0.2477504E+00 -0.1275574E-02  0.2617738E+06 -0.1570796E+01  0.7404051E-08 -0.1857735E+01
  0.1080000E+01  0.7979691E+05 -0.1570796E+01  0.6139474E-01 -0.3140366E+01  0.5218476E+06  0.3631234E-08  0.8017324E+00 -0.4485966E-03  0.2745359E+06 -0.1570796E+01  0.6252923E-08 -0.1065506E+01
  0.1110000E+01  0.8363907E+05 -0.1570796E+01  0.1065176E+00  0.2104007E-02  0.5154878E+06  0.8140186E-09  0.3762457E+00  0.3141410E+01  0.2873619E+06 -0.1570796E+01  0.1431719E-08  0.4636476E+00
  0.1140000E+01  0.8750277E+05 -0.1570796E+01  0.7545567E-01  0.1390276E-03  0.5089029E+06  0.3408771E-08  0.2369118E+00 -0.3141048E+01  0.3002233E+06 -0.1570796E+01  0.9674562E-08 -0.1691420E+01
  0.1170000E+01  0.9137934E+05 -0.1570796E+01  0.6644827E-01  0.3140251E+01  0.5020892E+06  0.5318355E-09  0.1146251E+00 -0.9713531E-03  0.3130932E+06 -0.1570796E+01  0.3093780E-08  0.2422763E+01
  0.1200000E+01  0.9526043E+05 -0.1570796E+01  0.5324032E-01 -0.9225007E-03  0.4950479E+06 -0.3585083E-08  0.3631937E+00  0.7536049E-03  0.3259423E+06 -0.1570796E+01  0.2308578E-07  0.1515298E+01
  0.1230000E+01  0.9913641E+05 -0.1570796E+01  0.3711081E-01  0.3140937E+01  0.4877776E+06 -0.1368599E-09  0.2075185E+00 -0.3141352E+01  0.3387404E+06 -0.1570796E+01  0.1958582E-07  0.1517276E+01
  0.1260000E+01  0.1029985E+06 -0.1570796E+01  0.7386893E-02 -0.3127972E+01  0.4802774E+06  0.6791005E-09  0.3645197E+00  0.3141142E+01  0.3514567E+06 -0.1570796E+01  0.2466797E-08 -0.3366748E+00
  0.1290000E+01  0.1068364E+06 -0.1570796E+01  0.7874012E-01 -0.3141587E+01  0.4725496E+06  0.6659884E-10  0.1843578E+00  0.3140912E+01  0.3640596E+06 -0.1570796E+01  0.1117784E-07 -0.1748787E+01
  0.1320000E+01  0.1106402E+06 -0.1570796E+01  0.4044745E-01 -0.3138362E+01  0.4645934E+06 -0.2452985E-08  0.6789623E+00  0.8325801E-03  0.3765169E+06 -0.1570796E+01  0.7373098E-08  0.1673607E+01
  0.1350000E+01  0.1143998E+06 -0.1570796E+01  0.2749228E+00 -0.3141506E+01  0.4564106E+06 -0.2714273E-08  0.4008633E+00  0.1963313E-02  0.3887948E+06 -0.1570796E+01  0.1571704E-07 -0.1581907E+01
  0.1380000E+01  0.1181038E+06 -0.1570796E+01  0.5941832E-01  0.3139618E+01  0.4480035E+06 -0.1837086E-08  0.2299500E+00  0.3140818E+01  0.4008601E+06 -0.1570796E+01  0.1235155E-07 -0.1371552E+01
  0.1410000E+01  0.1217413E+06 -0.1570796E+01  0.1250353E+00  0.3141536E+01  0.4393732E+06 -0.2012084E-08  0.3992540E-01  0.3124567E+01  0.4126800E+06 -0.1570796E+01  0.1245698E-07  0.1580142E+01
  0.1440000E+01  0.1253011E+06 -0.1570796E+01  0.5888752E-01  0.1174127E-02  0.4305241E+06 -0.2228438E-08  0.1024830E+00  0.3139214E+01  0.4242183E+06 -0.1570796E+01  0.7831040E-09  0.2303612E+01
  0.1470000E+01  0.1287719E+06 -0.1570796E+01  0.7722117E-02 -0.1340005E-01  0.4214582E+06  0.2016152E-08  0.3299229E+00  0.3141122E+01  0.4354398E+06 -0.1570796E+01  0.1405158E-07  0.1678709E+01
  0.1500000E+01  0.1321414E+06 -0.1570796E+01  0.1034234E+00 -0.3140832E+01  0.4121810E+06  0.4257258E-09  0.1620769E-01  0.3751113E-02  0.4463083E+06 -0.1570796E+01  0.1119768E-07 -0.1508378E+01
  0.1530000E+01  0.1353977E+06 -0.1570796E+01  0.2335260E+00 -0.3141047E+01  0.4026970E+06 -0.2022458E-08  0.2290655E+00  0.3141021E+01  0.4567909E+06 -0.1570796E+01  0.2351849E-07 -0.1585647E+01
  0.1560000E+01  0.1385288E+06 -0.1570796E+01  0.2879047E-02  0.3131655E+01  0.3930135E+06  0.8201803E-09  0.2199486E-01  0.3378306E-01  0.4668505E+06 -0.1570796E+01  0.8906533E-08 -0.1189076E+01
  0.1590000E+01  0.1415224E+06 -0.1570796E+01  0.4738533E-01  0.7416477E-02  0.3831330E+06  0.5072882E-08  0.1737403E+00  0.3139691E+01  0.4764500E+06 -0.1570796E+01  0.1164153E-09 -0.1570796E+01
  0.1620000E+01  0.1443654E+06 -0.1570796E+01  0.1065748E-01  0.1105150E-01  0.3730652E+06  0.2725038E-08  0.1760114E+00 -0.2221486E-02  0.4855533E+06 -0.1570796E+01  0.5029802E-07  0.1554594E+01
  0.1650000E+01  0.1470464E+06 -0.1570796E+01  0.6378658E-01  0.3140053E+01  0.3628181E+06  0.2823029E-08  0.2829507E+00  0.3140939E+01  0.4941289E+06 -0.1570796E+01  0.1544405E-07 -0.1670840E+01
  0.1680000E+01  0.1495522E+06 -0.1570796E+01  0.6351670E-01 -0.3140001E+01  0.3523984E+06 -0.4817105E-08  0.5613874E+00  0.3141440E+01  0.5021386E+06 -0.1570796E+01  0.4748832E-08 -0.1768192E+01
  0.1710000E+01  0.1518711E+06 -0.1570796E+01  0.1726524E+00  0.3562766E-03  0.3418178E+06  0.8766206E-08  0.8764187E-01  0.4676338E-02  0.5095468E+06 -0.1570796E+01  0.6659048E-07 -0.1576041E+01
  0.1740000E+01  0.1539896E+06 -0.1570796E+01  0.1320793E-01 -0.9603373E-02  0.3310831E+06 -0.5311583E-08  0.1909940E+00  0.3139577E+01  0.5163225E+06 -0.1570796E+01  0.6193312E-07  0.1573146E+01
  0.1770000E+01  0.1558965E+06 -0.1570796E+01  0.9949870E-01 -0.5798799E-03  0.3202089E+06 -0.3097419E-09  0.5147157E-02 -0.3127187E+01  0.5224309E+06 -0.1570796E+01  0.6692868E-08 -0.1701624E+01
  0.1800000E+01  0.1575799E+06 -0.1570796E+01  0.3202028E-01 -0.1005208E-01  0.3092045E+06 -0.5360485E-08  0.1670572E+00  0.2714475E-02  0.5278394E+06 -0.1570796E+01  0.6170661E-07 -0.1585300E+01
  0.1830000E+01  0.1590280E+06 -0.1570796E+01  0.8002538E-01  0.3139638E+01  0.2980829E+06  0.1983603E-09  0.2770023E+00 -0.2074312E-02  0.5325189E+06 -0.1570796E+01  0.6340913E-08  0.1701983E+01
  0.1860000E+01  0.1602289E+06 -0.1570796E+01  0.1822450E+00 -0.2014675E-03  0.2868574E+06  0.3211523E-08  0.1308670E+00 -0.3138741E+01  0.5364388E+06 -0.1570796E+01  0.7746439E-09  0.8501992E+00
  0.1890000E+01  0.1611720E+06 -0.1570796E+01  0.4957591E-01 -0.3140688E+01  0.2755424E+06 -0.6098424E-08  0.5399407E-01  0.3137566E+01  0.5395702E+06 -0.1570796E+01  0.2620321E-07 -0.1668973E+01
  0.1920000E+01  0.1618474E+06 -0.1570796E+01  0.6713650E-01  0.2521391E-02  0.2641528E+06 -0.3971345E-08  0.1025557E+00 -0.3140795E+01  0.5418884E+06 -0.1570796E+01  0.3739904E-07  0.1689360E+01
  0.1950000E+01  0.1622445E+06 -0.1570796E+01  0.3888849E-01  0.3140182E+01  0.2527030E+06  0.3411601E-08  0.5011356E+00  0.8294818E-03  0.5433664E+06 -0.1570796E+01  0.2620153E-08  0.1783441E+01
  0.1980000E+01  0.1623540E+06 -0.1570796E+01  0.1126319E+00  0.3138134E+01  0.2412100E+06  0.2925745E-09  0.1742611E+00 -0.4590207E-03  0.5439837E+06 -0.1570796E+01  0.4959293E-07  0.1570210E+01
  0.2010000E+01  0.1621682E+06 -0.1570796E+01  0.3544235E-01  0.2556237E-03  0.2296905E+06  0.1634226E-07  0.3874559E+00 -0.3079796E-03  0.5437184E+06 -0.1570796E+01  0.1288810E-08  0.1683947E+01
  0.2040000E+01  0.1616788E+06 -0.1570796E+01  0.2876666E-01  0.8271535E-02  0.2181629E+06 -0.4257730E-08  0.3617531E-01  0.3139006E+01  0.5425547E+06 -0.1570796E+01  0.2440424E-07 -0.1493201E+01
  0.2070000E+01  0.1608787E+06 -0.1570796E+01  0.7867283E-02  0.3102065E+01  0.2066442E+06  0.3572053E-08  0.1746064E+00  0.5296656E-02  0.5404743E+06 -0.1570796E+01  0.4336580E-07 -0.1480744E+01
  0.2100000E+01  0.1597625E+06 -0.1570796E+01  0.4489113E-01 -0.5204820E-03  0.1951545E+06 -0.8962330E-08  0.3683639E-01  0.1697783E-01  0.5374677E+06 -0.1570796E+01  0.2108371E-08  0.1460139E+01
  0.2130000E+01  0.1583253E+06 -0.1570796E+01  0.6692792E-01 -0.3140909E+01  0.1837124E+06  0.2256064E-07  0.3052979E+00 -0.1059733E-02  0.5335234E+06 -0.1570796E+01  0.2050769E-07 -0.1528208E+01
  0.2160000E+01  0.1565628E+06 -0.1570796E+01  0.1781047E-01  0.1100387E-01  0.1723382E+06  0.5666547E-08  0.1197053E+00  0.3140130E+01  0.5286359E+06 -0.1570796E+01  0.2571698E-08  0.3050933E+01
  0.2190000E+01  0.1544728E+06 -0.1570796E+01  0.2211869E-02  0.3054387E+01  0.1610514E+06 -0.1222208E-07  0.7318843E-03 -0.6097786E+00  0.5228001E+06 -0.1570796E+01  0.8460159E-08 -0.1107149E+01
  0.2220000E+01  0.1520537E+06 -0.1570796E+01  0.9093972E-02 -0.3146585E-01  0.1498731E+06 -0.4498792E-08  0.3449184E-02  0.3112972E+01  0.5160193E+06 -0.1570796E+01  0.5585813E-08  0.9856839E+00
  0.2250000E+01  0.1493059E+06 -0.1570796E+01  0.3129449E-01 -0.1491767E-01  0.1388234E+06  0.2844053E-08  0.1701141E+00 -0.2672706E-02  0.5082956E+06 -0.1570796E+01  0.7423474E-08 -0.1142222E+01
  0.2280000E+01  0.1462303E+06 -0.1570796E+01  0.7235555E-01  0.3137012E+01  0.1279252E+06 -0.5896855E-08  0.3101429E+00 -0.9743753E-03  0.4996371E+06 -0.1570796E+01  0.2363869E-07 -0.1496857E+01
  0.2310000E+01  0.1428300E+06 -0.1570796E+01  0.9291248E-02 -0.4054379E-02  0.1171976E+06 -0.3043357E-08  0.1676838E+00 -0.3137846E+01  0.4900551E+06 -0.1570796E+01  0.1454458E-07 -0.1838101E+01
  0.2340000E+01  0.1391097E+06 -0.1570796E+01  0.2620966E-01 -0.7713987E-02  0.1066630E+06 -0.2708229E-07  0.4683971E-01  0.3136586E+01  0.4795653E+06 -0.1570796E+01  0.5846321E-08 -0.9551764E+00
  0.2370000E+01  0.1350748E+06 -0.1570796E+01  0.1787066E-01  0.8898794E-02  0.9634187E+05  0.9384116E-08  0.2301949E+00 -0.4144983E-02  0.4681871E+06 -0.1570796E+01  0.2777384E-07  0.1595948E+01
  0.2400000E+01  0.1307333E+06 -0.1570796E+01  0.1894587E-01  0.3121079E+01  0.8625580E+05  0.1879580E-07  0.1528447E+00 -0.9558132E-03  0.4559447E+06 -0.1570796E+01  0.2968614E-07 -0.1574718E+01
  0.2430000E+01  0.1260947E+06 -0.1570796E+01  0.2840680E-02 -0.9928449E-01  0.7642532E+05 -0.2083912E-07  0.2351471E+00  0.3140890E+01  0.4428642E+06 -0.1570796E+01  0.1194676E-07  0.1522054E+01
  0.2460000E+01  0.1211692E+06 -0.1570796E+01  0.9223319E-02 -0.1326120E-01  0.6687048E+05  0.3082626E-07  0.3909119E-01 -0.3134324E+01  0.4289802E+06 -0.1570796E+01  0.1362669E-07 -0.1407754E+01
  0.2490000E+01  0.1159702E+06 -0.1570796E+01  0.4456576E-02  0.1546158E-01  0.5761127E+05 -0.4636665E-07  0.1197637E+00 -0.3137691E+01  0.4143269E+06 -0.1570796E+01  0.3913652E-07  0.1621386E+01
  0.2520000E+01  0.1105121E+06 -0.1570796E+01  0.3450017E-02 -0.3081157E+01  0.4866728E+05  0.6631219E-07  0.3061231E-01 -0.3117805E+01  0.3989471E+06 -0.1570796E+01  0.1816079E-07  0.1570796E+01
  0.2550000E+01  0.1048106E+06 -0.1570796E+01  0.2745355E-01 -0.3132721E+01  0.4005648E+05  0.5332451E-07  0.3698108E-01  0.3126397E+01  0.3828829E+06 -0.1570796E+01  0.2677552E-07 -0.1570796E+01
  0.2580000E+01  0.9888409E+05 -0.1570796E+01  0.4964530E-02  0.3069060E+01  0.3179729E+05 -0.1196693E-07  0.3117001E-01  0.3138805E+01  0.3661826E+06 -0.1570796E+01  0.3791830E-07 -0.1444585E+01
  0.2610000E+01  0.9275195E+05 -0.1570796E+01  0.6750569E-02  0.3355426E-01  0.2390628E+05  0.3165197E-08  0.8122388E-01  0.8142780E-03  0.3489014E+06 -0.1570796E+01  0.8681217E-08 -0.1773328E+01
  0.2640000E+01  0.8643548E+05 -0.1570796E+01  0.2541027E-02  0.3080567E+01  0.1639893E+05  0.1907837E-07  0.3033073E-01  0.1764238E-01  0.3310930E+06 -0.1570796E+01  0.3742199E-08 -0.8170245E+00
  0.2670000E+01  0.7995731E+05 -0.1570796E+01  0.3943223E-02  0.3084363E+01  0.9290510E+04 -0.3425956E-07  0.7316979E-02  0.3138650E+01  0.3128187E+06 -0.1570796E+01  0.7431970E-08  0.1856627E+01
  0.2700000E+01  0.7334210E+05 -0.1570796E+01  0.1462947E-03  0.2915588E+01  0.2593686E+04 -0.1368729E-06  0.2275567E-01  0.3139498E+01  0.2941419E+06 -0.1570796E+01  0.8439559E-08 -0.1893637E+01
  0.2730000E+01  0.6661554E+05 -0.1570796E+01  0.1097990E-02  0.3071507E+01  0.3679025E+04  0.3141592E+01  0.3930721E-01 -0.3132788E+01  0.2751287E+06 -0.1570796E+01  0.2639940E-07 -0.1712382E+01
  0.2760000E+01  0.5980489E+05 -0.1570796E+01  0.6835626E-02 -0.3127885E+01  0.9517370E+04  0.3141593E+01  0.2577489E-01  0.3118748E+01  0.2558485E+06 -0.1570796E+01  0.9746960E-08 -0.1702559E+01
  0.2790000E+01  0.5293828E+05 -0.1570796E+01  0.1551235E-02  0.3051559E+01  0.1491248E+05  0.3141593E+01  0.3042248E-01  0.1349951E-01  0.2363750E+06 -0.1570796E+01  0.7125150E-08  0.1489012E+01
  0.2820000E+01  0.4604554E+05 -0.1570796E+01  0.3398915E-02  0.3367620E-01  0.1985710E+05 -0.3141593E+01  0.2523187E-01 -0.3120229E+01  0.2167799E+06 -0.1570796E+01  0.8591301E-08  0.1122299E+01
  0.2850000E+01  0.3915710E+05 -0.1570796E+01  0.9419337E-02 -0.3124810E+01  0.2434566E+05  0.3141593E+01  0.9848253E-02 -0.1779379E-02  0.1971419E+06 -0.1570796E+01  0.7466253E-08  0.1711591E+01
  0.2880000E+01  0.3230408E+05 -0.1570796E+01  0.1295920E-01  0.1019246E-01  0.2837477E+05 -0.3141593E+01  0.6284136E-02 -0.2390207E-02  0.1775376E+06 -0.1570796E+01  0.6092927E-08 -0.1239983E+01
  0.2910000E+01  0.2551849E+05 -0.1570796E+01  0.8649239E-02  0.9206929E-02  0.3194270E+05  0.3141593E+01  0.2560366E-01  0.6155201E-02  0.1580469E+06 -0.1570796E+01  0.1557096E-07 -0.1774057E+01
  0.2940000E+01  0.1883260E+05 -0.1570796E+01  0.2998239E-02  0.3126006E+01  0.3504980E+05  0.3141593E+01  0.9142642E-02  0.3131331E+01  0.1387479E+06 -0.1570796E+01  0.2604505E-07 -0.1490253E+01
  0.2970000E+01  0.1227903E+05 -0.1570796E+01  0.1559884E-02 -0.3760844E-01  0.3769840E+05  0.3141593E+01  0.8153542E-02  0.1193065E-01  0.1197212E+06 -0.1570796E+01  0.6269157E-08 -0.1833791E+01
  0.3000000E+01  0.5890053E+04 -0.1570796E+01  0.5537303E-02  0.3358437E-02  0.3989290E+05 -0.3141593E+01  0.1680657E-02 -0.1048138E+00  0.1010468E+06 -0.1570796E+01  0.3272596E-08  0.1659846E+01
  0.3030000E+01  0.3017948E+03  0.1570787E+01  0.9653720E-02 -0.8989854E-02  0.4163996E+05  0.3141593E+01  0.1264884E-01 -0.1660678E-01  0.8280248E+05 -0.1570796E+01  0.4660337E-07 -0.1530818E+01
  0.3060000E+01  0.6264794E+04  0.1570796E+01  0.1894950E-02  0.3080155E+01  0.4294821E+05 -0.3141593E+01  0.3913560E-01  0.2729271E-02  0.6506545E+05 -0.1570796E+01  0.1270208E-07 -0.1907039E+01
  0.3090000E+01  0.1196782E+05  0.1570796E+01  0.3205921E-01  0.1056029E-02  0.4382844E+05  0.3141593E+01  0.2160017E-01 -0.3128573E+01  0.4791114E+05 -0.1570796E+01  0.8499565E-08  0.1097961E+01
  0.3120000E+01  0.1738077E+05  0.1570796E+01  0.1098740E-01 -0.3136992E+01  0.4429335E+05  0.3141593E+01  0.2955200E-02  0.3000952E+01  0.3141237E+05 -0.1570796E+01  0.2679323E-07 -0.1470695E+01
  0.3150000E+01  0.2247492E+05  0.1570796E+01  0.5465846E-02 -0.1727426E-01  0.4435815E+05 -0.3141593E+01  0.8795086E-02 -0.7414149E-02  0.1563853E+05 -0.1570796E+01  0.8735078E-08 -0.1600787E+01
  0.3180000E+01  0.2722273E+05  0.1570796E+01  0.3641945E-02 -0.1099828E-01  0.4403957E+05 -0.3141593E+01  0.9149370E-02  0.2595715E-01  0.6561658E+03 -0.1570793E+01  0.1750402E-07 -0.1639853E+01
  0.3210000E+01  0.3159879E+05  0.1570796E+01  0.1747341E-01  0.3139573E+01  0.4335654E+05 -0.3141593E+01  0.5294638E-02  0.1209090E-01  0.1347330E+05  0.1570796E+01  0.1666132E-07  0.1695964E+01
  0.3240000E+01  0.3557953E+05  0.1570796E+01  0.1402299E-01 -0.3135948E+01  0.4232995E+05 -0.3141593E+01  0.4060582E-02  0.3098835E+01  0.2669239E+05  0.1570796E+01  0.9860154E-08  0.1370217E+01
  0.3270000E+01  0.3914382E+05  0.1570796E+01  0.2941285E-02 -0.4863578E-02  0.4098190E+05  0.3141593E+01  0.1873477E-01 -0.3126601E+01  0.3894916E+05  0.1570796E+01  0.8279618E-08 -0.1952608E+01
  0.3300000E+01  0.4227299E+05  0.1570796E+01  0.5678670E-02  0.2351159E-02  0.3933678E+05 -0.3141593E+01  0.2189131E-01 -0.2537610E-02  0.5019741E+05  0.1570796E+01  0.8189716E-08 -0.1670465E+01
  0.3330000E+01  0.4495119E+05  0.1570796E+01  0.1659067E-01  0.3135471E+01  0.3742001E+05 -0.3141593E+01  0.2997380E-01  0.3977126E-02  0.6039701E+05  0.1570796E+01  0.7135604E-08  0.1077960E+01
  0.3360000E+01  0.4716553E+05  0.1570796E+01  0.1190546E-01 -0.3134864E+01  0.3525866E+05 -0.3141593E+01  0.4538447E-01  0.3141272E+01  0.6951449E+05  0.1570796E+01  0.3329560E-08 -0.2207304E+01
  0.3390000E+01  0.4890660E+05  0.1570796E+01  0.1201050E-01  0.5161244E-02  0.3288072E+05 -0.3141593E+01  0.1287822E-01  0.1202469E-01  0.7752359E+05  0.1570796E+01  0.1408674E-07  0.1579061E+01
  0.3420000E+01  0.5016796E+05  0.1570796E+01  0.1135174E-01 -0.3136426E+01  0.3031530E+05 -0.3141593E+01  0.1576559E-01 -0.7085055E-02  0.8440509E+05  0.1570796E+01  0.5491300E-09  0.2129396E+01
  0.3450000E+01  0.5094721E+05  0.1570796E+01  0.1793723E-02 -0.3097183E+01  0.2759208E+05 -0.3141593E+01  0.1934484E-01  0.3132787E+01  0.9014804E+05  0.1570796E+01  0.1571704E-07  0.1581907E+01
  0.3480000E+01  0.5124549E+05  0.1570796E+01  0.8085988E-02 -0.3133573E+01  0.2474181E+05  0.3141593E+01  0.1560557E-02 -0.1308453E+00  0.9474841E+05  0.1570796E+01  0.9599853E-09 -0.2896614E+01
  0.3510000E+01  0.5106759E+05  0.1570796E+01  0.1895022E-02  0.3085955E+01  0.2179489E+05  0.3141593E+01  0.4477262E-02 -0.5325097E-04  0.9821106E+05  0.1570796E+01  0.3804929E-08 -0.2082352E+01
  0.3540000E+01  0.5042243E+05  0.1570796E+01  0.2627231E-03 -0.2514064E+01  0.1878244E+05 -0.3141593E+01  0.1313227E-01  0.3129950E+01  0.1005494E+06  0.1570796E+01  0.8735999E-08  0.2180976E+01
  0.3570000E+01  0.4932272E+05  0.1570796E+01  0.7825409E-03 -0.3015121E+01  0.1573493E+05 -0.3141593E+01  0.2505264E-01 -0.2671818E-02  0.1017839E+06  0.1570796E+01  0.1103876E-07 -0.1123657E+01
  0.3600000E+01  0.4778532E+05  0.1570796E+01  0.3972092E-02  0.3137211E+01  0.1268300E+05 -0.3141593E+01  0.5871411E-02  0.3112413E+01  0.1019438E+06  0.1570796E+01  0.5762926E-08 -0.1469620E+01
  0.3630000E+01  0.4583036E+05  0.1570796E+01  0.5650520E-02  0.3141572E+01  0.9656285E+04 -0.3141593E+01  0.6469378E-03 -0.3026494E+01  0.1010667E+06  0.1570796E+01  0.1048772E-07  0.1615211E+01
  0.3660000E+01  0.4348252E+05  0.1570796E+01  0.1142302E-02 -0.3632487E-01  0.6683590E+04 -0.3141593E+01  0.1362224E-01  0.3136180E+01  0.9919770E+05  0.1570796E+01  0.1664009E-07 -0.1472694E+01
  0.3690000E+01  0.4076974E+05  0.1570796E+01  0.3356039E-03  0.3002346E+01  0.3792701E+04  0.3141593E+01  0.2682556E-01 -0.1009870E-02  0.9638952E+05  0.1570796E+01  0.2246139E-08 -0.4926250E+00
  0.3720000E+01  0.3772343E+05  0.1570796E+01  0.9720477E-03  0.1843234E+00  0.1010053E+04 -0.3141592E+01  0.8889003E-02 -0.1405338E-01  0.9270241E+05  0.1570796E+01  0.9416438E-08 -0.1320945E+01
  0.3750000E+01  0.3437834E+05  0.1570796E+01  0.2999899E-02  0.3114886E+01  0.1639638E+04 -0.9138973E-06  0.4943565E-02 -0.2564205E-01  0.8820270E+05  0.1570796E+01  0.3940991E-08 -0.7827872E+00
  0.3780000E+01  0.3077229E+05  0.1570796E+01  0.3309673E-03 -0.3100185E+00  0.4133365E+04 -0.1010579E-06  0.1761859E-02  0.6430541E-01  0.8296366E+05  0.1570796E+01  0.4549237E-08 -0.1776975E+01
  0.3810000E+01  0.2694554E+05  0.1570796E+01  0.4442224E-03 -0.2788099E+01  0.6450235E+04 -0.4672095E-07  0.3821678E-02  0.3124732E+01  0.7706378E+05  0.1570796E+01  0.1828056E-07 -0.1698508E+01
  0.3840000E+01  0.2294097E+05  0.1570796E+01  0.1644852E-02 -0.1710474E-01  0.8571561E+04  0.5768846E-07  0.1509554E-01  0.3138564E+01  0.7058665E+05  0.1570796E+01  0.3233099E-07  0.1498719E+01
  0.3870000E+01  0.1880322E+05  0.1570796E+01  0.3008863E-02  0.3137868E+01  0.1048102E+05 -0.1896245E-06  0.1738330E-02  0.2908071E-01  0.6361998E+05  0.1570796E+01  0.7577063E-08 -0.2120438E+01
  0.3900000E+01  0.1457839E+05  0.1570796E+01  0.1969564E-02 -0.3462763E-01  0.1216496E+05 -0.8780263E-08  0.6063397E-03  0.4995840E-01  0.5625489E+05  0.1570796E+01  0.2520499E-07  0.1580034E+01
  0.3930000E+01  0.1031374E+05  0.1570796E+01  0.5623790E-02  0.3128959E+01  0.1361236E+05 -0.7083009E-07  0.5701221E-03  0.3116290E+01  0.4858461E+05  0.1570796E+01  0.3206312E-07  0.1803446E+01
  0.3960000E+01  0.6057058E+04  0.1570797E+01  0.1215071E-02 -0.1216580E-01  0.1481502E+05  0.1506308E-07  0.1023297E-02  0.3138680E+01  0.4070452E+05  0.1570796E+01  0.1779032E-07  0.1416406E+01
  0.3990000E+01  0.1856100E+04  0.1570797E+01  0.1853471E-02  0.3139277E+01  0.1576763E+05 -0.1229016E-06  0.1208465E-02  0.3091262E+01  0.3271050E+05  0.1570796E+01  0.1097102E-07  0.1833791E+01
  0.4020000E+01  0.2242095E+04 -0.1570797E+01  0.6683344E-02  0.8347707E-02  0.1646781E+05 -0.3231457E-07  0.4899147E-02  0.3109225E+01  0.2469712E+05  0.1570796E+01  0.4877857E-07 -0.1566023E+01
  0.4050000E+01  0.6191077E+04 -0.1570796E+01  0.5487312E-02  0.1459941E-01  0.1691611E+05 -0.2142315E-07  0.3824384E-02 -0.3126287E+01  0.1675896E+05  0.1570797E+01  0.3451911E-07 -0.1511743E+01
  0.4080000E+01  0.9946461E+04 -0.1570797E+01  0.2422960E-02 -0.2046857E-01  0.1711606E+05 -0.2964203E-07  0.7571160E-02 -0.1683239E-01  0.8987208E+04  0.1570797E+01  0.4179618E-08  0.1346085E+01
  0.4110001E+01  0.1346616E+05 -0.1570797E+01  0.3844367E-02 -0.1649744E-01  0.1707403E+05  0.1452237E-07  0.2238614E-02  0.3115070E+01  0.1469264E+04  0.1570798E+01  0.3357306E-07  0.1518760E+01
  0.4140000E+01  0.1671033E+05 -0.1570796E+01  0.9273505E-02 -0.3140513E+01  0.1679916E+05 -0.1305690E-07  0.9463134E-02 -0.3137889E+01  0.5710725E+04 -0.1570797E+01  0.1996610E-07  0.1647741E+01
  0.4170000E+01  0.1964293E+05 -0.1570796E+01  0.1552107E-02 -0.3095186E+01  0.1630337E+05  0.4480758E-07  0.1350612E-01  0.3139236E+01  0.1247510E+05 -0.1570796E+01  0.2377653E-07  0.1522427E+01
  0.4200000E+01  0.2223150E+05 -0.1570796E+01  0.7108570E-02 -0.4024752E-03  0.1560088E+05 -0.2017275E-07  0.4561608E-02  0.1463458E-02  0.1875222E+05 -0.1570796E+01  0.4939331E-07 -0.1648653E+01
  0.4230000E+01  0.2444790E+05 -0.1570796E+01  0.1352072E-02  0.7053429E-03  0.1470850E+05 -0.1231928E-08  0.7440329E-02 -0.1498117E-01  0.2447749E+05 -0.1570796E+01  0.3772867E-07  0.1547652E+01
  0.4260000E+01  0.2626871E+05 -0.1570796E+01  0.5804180E-03  0.3107081E+01  0.1364495E+05  0.6989210E-09  0.6561627E-02 -0.3137686E+01  0.2959436E+05 -0.1570796E+01  0.1837087E-06  0.1578401E+01
  0.4290000E+01  0.2767566E+05 -0.1570796E+01  0.9503609E-02 -0.3140489E+01  0.1243090E+05  0.2961317E-07  0.1905217E-02  0.3098093E+01  0.3405517E+05 -0.1570796E+01  0.9223334E-07 -0.1597305E+01
  0.4320000E+01  0.2865595E+05 -0.1570796E+01  0.7543250E-02 -0.6574278E-02  0.1108854E+05  0.8101708E-07  0.6678752E-02 -0.3137666E+01  0.3782130E+05 -0.1570796E+01  0.1022186E-06 -0.1559977E+01
  0.4350000E+01  0.2920230E+05 -0.1570796E+01  0.1502612E-02 -0.1142445E-01  0.9641348E+04  0.3353220E-07  0.6873349E-03  0.1274743E+00  0.4086399E+05 -0.1570796E+01  0.2680897E-07 -0.1520838E+01
  0.4380000E+01  0.2931350E+05 -0.1570796E+01  0.6616631E-03  0.3069464E+01  0.8113847E+04  0.7968984E-07  0.3049975E-02  0.2802785E-01  0.4316446E+05 -0.1570796E+01  0.8289433E-07  0.1583436E+01
  0.4410000E+01  0.2899429E+05 -0.1570796E+01  0.2087505E-02 -0.3587032E-01  0.6531021E+04  0.1442700E-06  0.1071807E-02  0.3035062E+01  0.4471450E+05 -0.1570796E+01  0.6814275E-07  0.1604971E+01
  0.4440000E+01  0.2825546E+05 -0.1570796E+01  0.2733248E-02  0.3122576E+01  0.4918295E+04  0.2520744E-06  0.5532369E-02  0.3124386E+01  0.4551618E+05 -0.1570796E+01  0.9354434E-07  0.1560840E+01
  0.4470000E+01  0.2711366E+05 -0.1570796E+01  0.3082423E-02  0.3131808E+01  0.3300860E+04  0.3663467E-06  0.1634689E-02 -0.1053782E-01  0.4558198E+05 -0.1570796E+01  0.1711464E-07  0.1584401E+01
  0.4500000E+01  0.2559152E+05 -0.1570796E+01  0.2152802E-02 -0.3123318E+01  0.1703562E+04 -0.1266575E-06  0.3904944E-02 -0.1617973E-02  0.4493459E+05 -0.1570796E+01  0.1868783E-07 -0.1489724E+01
  0.4530000E+01  0.2371700E+05 -0.1570796E+01  0.1060310E-02 -0.3117769E+01  0.1504011E+03  0.5624949E-05  0.3976943E-03 -0.6526090E-01  0.4360664E+05 -0.1570796E+01  0.2872774E-07  0.1550533E+01