VARIABLES="w (rad/s)"
"A   1   1" "B   1   1"
"A   1   2" "B   1   2"
"A   1   3" "B   1   3"
"A   1   4" "B   1   4"
"A   1   5" "B   1   5"
"A   1   6" "B   1   6"
Zone t="Motion of body    1 in DoF   1",I=   308,F=POINT
  0.3000000E-01  0.2012319E+05  0.1998146E-07  0.6705523E-05 -0.2779027E-13  0.1597976E-01  0.5548538E-06 -0.7407119E-04  0.4978136E-13  0.7130788E+05  0.6647133E-07  0.1394559E-08  0.3070494E-20
  0.6000000E-01  0.2013256E+05  0.7096186E-05  0.3166497E-05 -0.7260026E-12  0.1881719E-01  0.5018478E-05 -0.9099022E-04 -0.6894638E-11  0.7133457E+05  0.2322698E-04  0.4790006E-08 -0.9893345E-18
  0.9000000E-01  0.2012095E+05  0.1180247E-03  0.2475249E-04 -0.1427303E-11  0.1913922E-01  0.1693456E-04  0.5476177E-04  0.5296874E-12  0.7136049E+05  0.4194285E-03  0.3880511E-08  0.4239230E-16
  0.1200000E+00  0.2016430E+05  0.8948948E-03  0.2762924E-04  0.6593837E-11  0.1376768E-01  0.3370187E-04 -0.8827386E-04 -0.5693224E-11  0.7143080E+05  0.3178871E-02 -0.1515825E-09  0.2315856E-15
  0.1500000E+00  0.2018063E+05  0.4238604E-02 -0.1033147E-04 -0.1951150E-10  0.1424332E-01  0.6428468E-04  0.3300607E-04  0.1619682E-10  0.7148848E+05  0.1498437E-01  0.3225674E-08  0.1387779E-16
  0.1800000E+00  0.2018871E+05  0.1510210E-01  0.8195639E-05  0.1961098E-10  0.1795424E-01  0.1184009E-03  0.3294812E-04  0.1315925E-09  0.7157081E+05  0.5343489E-01 -0.9094946E-09  0.3275158E-14
  0.2100000E+00  0.2028093E+05  0.4430147E-01  0.2483527E-05  0.9913492E-10  0.1304916E-01  0.1374310E-03  0.4417130E-05  0.6139089E-11  0.7188613E+05  0.1566645E+00 -0.5214436E-08 -0.7327472E-14
  0.2400000E+00  0.2029731E+05  0.1123950E+00 -0.1372149E-04 -0.2546585E-09  0.1195669E-01  0.2118344E-03 -0.1198302E-04 -0.7197514E-09  0.7187173E+05  0.3971770E+00 -0.4729372E-08  0.1187939E-13
  0.2700000E+00  0.2034747E+05  0.2553295E+00 -0.1561862E-04  0.4647518E-09  0.9350423E-02  0.2238024E-03  0.3112687E-04  0.1023636E-08  0.7212286E+05  0.9018916E+00 -0.1455191E-08 -0.9592327E-13
  0.3000000E+00  0.2039072E+05  0.5312955E+00 -0.1132488E-04  0.3183231E-09  0.1200895E-01  0.3582130E-03 -0.4361073E-04  0.5436050E-08  0.7217010E+05  0.1874848E+01 -0.4220055E-08  0.5728751E-13
  0.3300000E+00  0.2049076E+05  0.1030452E+01 -0.3431782E-05 -0.2135494E-08  0.1062408E-01  0.4343925E-03  0.4967054E-04 -0.6148184E-09  0.7253187E+05  0.3633749E+01 -0.1466216E-08 -0.8881784E-15
  0.3600000E+00  0.2049566E+05  0.1883134E+01 -0.2574589E-04  0.1200533E-08  0.6369584E-02  0.4014961E-03  0.1262459E-05  0.2606612E-08  0.7255072E+05  0.6635183E+01 -0.2667851E-08  0.7549517E-12
  0.3900000E+00  0.2062177E+05  0.3279129E+01  0.4584973E-06  0.1396984E-08  0.1107347E-01  0.6758901E-03 -0.3507504E-04  0.2255911E-07  0.7287012E+05  0.1153922E+02 -0.3264853E-08 -0.6217249E-13
  0.4200000E+00  0.2070333E+05  0.5471846E+01  0.4257475E-06  0.2590241E-08  0.8299380E-02  0.7290186E-03 -0.3407754E-04  0.7894414E-08  0.7321375E+05  0.1923930E+02 -0.2338701E-08 -0.2629008E-11
  0.4500000E+00  0.2074360E+05  0.8801192E+01 -0.2582868E-05 -0.6722985E-08  0.1010524E-01  0.9621579E-03 -0.9271834E-05  0.2796878E-07  0.7332989E+05  0.3091081E+02  0.1047738E-07  0.3190337E-11
  0.4800000E+00  0.2087330E+05  0.1372273E+02 -0.3104409E-05 -0.1169974E-07  0.1395270E-01  0.1489419E-02 -0.4752850E-04 -0.1584704E-07  0.7366782E+05  0.4812679E+02  0.3819878E-08 -0.1563194E-12
  0.5100000E+00  0.2102072E+05  0.2080673E+02 -0.7771979E-05  0.1181616E-07  0.4167183E-02  0.6151516E-03 -0.9542587E-04 -0.5119364E-07  0.7414735E+05  0.7287718E+02 -0.4979038E-08  0.1080025E-11
  0.5400000E+00  0.2109825E+05  0.3075508E+02  0.4084022E-05  0.6635673E-08  0.7126949E-02  0.1330922E-02  0.1346623E-04  0.8946517E-07  0.7447073E+05  0.1076011E+03 -0.2290579E-09 -0.2216893E-11
  0.5700000E+00  0.2120126E+05  0.4446197E+02  0.1254835E-04 -0.1303852E-07  0.7056563E-02  0.1450458E-02  0.4658574E-04 -0.1286389E-06  0.7475959E+05  0.1553237E+03 -0.5973944E-08 -0.3865352E-11
  0.6000000E+00  0.2136467E+05  0.6301721E+02  0.8642673E-05 -0.2584420E-07  0.8736650E-02  0.1918260E-02 -0.1476208E-03  0.1469161E-06  0.7521802E+05  0.2197785E+03  0.4244308E-08 -0.4661160E-11
  0.6299999E+00  0.2155431E+05  0.8771130E+02  0.3216759E-04 -0.1019798E-06  0.6375617E-02  0.1591892E-02 -0.6793038E-04  0.1845183E-06  0.7580779E+05  0.3053988E+03  0.1019789E-07 -0.3012701E-11
  0.6600000E+00  0.2171580E+05  0.1200494E+03 -0.3206007E-04  0.2607703E-07  0.4662347E-02  0.1485256E-02  0.1486729E-03  0.3095483E-06  0.7637445E+05  0.4173500E+03 -0.1565433E-08  0.1250555E-11
  0.6899999E+00  0.2184458E+05  0.1617825E+03 -0.9502191E-05  0.3520399E-06  0.8643539E-02  0.3047865E-02  0.8338173E-04  0.2975576E-06  0.7681762E+05  0.5615355E+03 -0.3184550E-08  0.1068656E-10
  0.7200000E+00  0.2201505E+05  0.2149778E+03 -0.1283156E-04  0.8754432E-07  0.6911324E-02  0.2623126E-02 -0.8715109E-04  0.4682224E-06  0.7732082E+05  0.7448198E+03 -0.3435869E-08 -0.6150458E-10
  0.7500000E+00  0.2223481E+05  0.2819912E+03 -0.1986821E-05  0.3520399E-06  0.7350286E-02  0.3116652E-02  0.2574921E-04 -0.6125774E-06  0.7795777E+05  0.9750641E+03  0.6402843E-09  0.1909939E-10
  0.7800000E+00  0.2247690E+05  0.3654417E+03  0.8864281E-05 -0.2868474E-06  0.2798667E-02  0.1123693E-02 -0.2842683E-04  0.6053597E-06  0.7869190E+05  0.1261052E+04  0.8227429E-08 -0.1386979E-10
  0.8100000E+00  0.2271251E+05  0.4682413E+03 -0.5224605E-05  0.6332994E-07  0.2964043E-03  0.6704703E-03 -0.4047229E-06 -0.1706649E-05  0.7945305E+05  0.1612542E+04 -0.1268352E-07  0.6184564E-10
  0.8400000E+00  0.2291673E+05  0.5936104E+03 -0.1632032E-04  0.2719462E-06  0.3566345E-02  0.1888476E-02 -0.5550683E-04 -0.2020970E-06  0.8015483E+05  0.2040197E+04  0.1992227E-08 -0.1045919E-09
  0.8700000E+00  0.2311913E+05  0.7448795E+03 -0.3966792E-04  0.1151115E-05 -0.1484882E-01 -0.6125197E-02  0.1003687E-04 -0.2142042E-06  0.8080215E+05  0.2554865E+04  0.1070486E-07 -0.2364686E-09
  0.9000000E+00  0.2334932E+05  0.9255326E+03 -0.8675787E-05  0.7748604E-06 -0.1754072E-01 -0.8460738E-02 -0.2609359E-04 -0.2571382E-05  0.8148566E+05  0.3167763E+04 -0.8682643E-08  0.1455192E-10
  0.9299999E+00  0.2360830E+05  0.1139385E+04 -0.4794008E-04 -0.5736947E-06 -0.1889506E-01 -0.1018305E-01  0.6133511E-04  0.2446584E-05  0.8223768E+05  0.3890924E+04  0.3442389E-09 -0.2673914E-09
  0.9600000E+00  0.2388186E+05  0.1390396E+04  0.7450581E-06  0.2227724E-05 -0.2214288E-01 -0.1304363E-01  0.8776163E-04  0.4740432E-05  0.8304344E+05  0.4736858E+04  0.2152471E-08 -0.1882654E-09
  0.9899999E+00  0.2415621E+05  0.1682714E+04  0.5539018E-05 -0.1974404E-05 -0.2715275E-01 -0.1705861E-01  0.3491990E-04 -0.9367242E-05  0.8386647E+05  0.5718480E+04  0.4145091E-08  0.6730261E-09
  0.1020000E+01  0.2441365E+05  0.2020564E+04  0.1355714E-04  0.6482005E-06 -0.3637519E-01 -0.2560824E-01 -0.4832651E-04  0.1451932E-04  0.8465910E+05  0.6848910E+04 -0.5078904E-08 -0.3237801E-09
  0.1050000E+01  0.2464017E+05  0.2408333E+04  0.1532691E-04 -0.1512468E-05 -0.4190400E-01 -0.3268749E-01 -0.6113734E-04 -0.1139194E-04  0.8537130E+05  0.8141357E+04 -0.2785652E-08 -0.1018634E-09
  0.1080000E+01  0.2484224E+05  0.2849084E+04 -0.1622571E-04  0.2533197E-06 -0.2492909E-01 -0.2503470E-01 -0.4166806E-05  0.1195446E-04  0.8598490E+05  0.9605793E+04  0.3099019E-08  0.4129106E-09
  0.1110000E+01  0.2503794E+05  0.3344730E+04  0.5799371E-05  0.6407499E-06  0.4381059E-01  0.3583172E-01  0.1055432E-03 -0.7264316E-06  0.8653533E+05  0.1124762E+05 -0.6030523E-09 -0.1637090E-09
  0.1140000E+01  0.2522616E+05  0.3897617E+04  0.3450795E-05 -0.4351139E-05  0.3429317E-01  0.3259769E-01 -0.3288712E-04  0.2782792E-05  0.8703614E+05  0.1307201E+05  0.6178182E-08  0.4729372E-10
  0.1170000E+01  0.2539835E+05  0.4509826E+04 -0.1844178E-04  0.4172325E-06  0.2830069E-01  0.2893406E-01 -0.9834766E-04 -0.1813099E-04  0.8747803E+05  0.1508338E+05 -0.1940256E-08  0.2655725E-09
  0.1200000E+01  0.2554344E+05  0.5183151E+04 -0.3308058E-04 -0.1204014E-04  0.2123415E-01  0.2558482E-01  0.1979371E-04  0.2125651E-04  0.8783651E+05  0.1728476E+05 -0.4147296E-08 -0.2546585E-09
  0.1230000E+01  0.2565737E+05  0.5918201E+04  0.1075791E-04  0.7927418E-05  0.9533448E-02  0.1605499E-01  0.1011098E-03  0.2510846E-05  0.8809291E+05  0.1967633E+05 -0.6033721E-08  0.7057679E-09
  0.1260000E+01  0.2574130E+05  0.6711688E+04  0.5676633E-06 -0.5930662E-05  0.9621514E-02  0.1475620E-01  0.1342997E-03  0.8232892E-05  0.8823933E+05  0.2224870E+05  0.5104719E-08  0.3710738E-09
  0.1290000E+01  0.2579536E+05  0.7561044E+04  0.1737314E-04  0.1579523E-05 -0.8374222E-02 -0.6140053E-02 -0.9448953E-05  0.3527105E-04  0.8827271E+05  0.2498996E+05  0.6542722E-08 -0.8876668E-09
  0.1320000E+01  0.2581360E+05  0.8463463E+04  0.1977790E-04 -0.8136034E-05  0.5280972E-02  0.3793478E-02  0.1046694E-03  0.9618700E-05  0.8818547E+05  0.2788705E+05  0.7849215E-08 -0.1331500E-08
  0.1350000E+01  0.2578913E+05  0.9415766E+04 -0.2030973E-04  0.1168251E-04 -0.3469608E-02  0.7288456E-03  0.1168692E-03 -0.1209974E-04  0.8796460E+05  0.3092609E+05 -0.4031419E-08  0.1207809E-08
  0.1380000E+01  0.2572092E+05  0.1041265E+05 -0.1321668E-04 -0.1955032E-04 -0.5683692E-02 -0.5253553E-02 -0.6236892E-04  0.2628565E-04  0.8760254E+05  0.3408964E+05  0.6390189E-08 -0.3179593E-08
  0.1410000E+01  0.2561190E+05  0.1144563E+05  0.1665548E-04 -0.5722046E-05  0.1498148E-03 -0.2980232E-05  0.1039911E-04 -0.2130866E-04  0.8710344E+05  0.3735218E+05 -0.6832176E-08 -0.7275958E-10
  0.1440000E+01  0.2546068E+05  0.1250810E+05  0.4586246E-04  0.1180172E-04  0.5235605E-02  0.1124072E-01  0.4172325E-04  0.5666912E-04  0.8646651E+05  0.4068809E+05 -0.4830427E-08  0.5093170E-09
  0.1470000E+01  0.2526666E+05  0.1359391E+05  0.1662442E-04 -0.5662441E-05  0.1310621E-01  0.2208185E-01 -0.4125696E-04  0.8350611E-04  0.8569316E+05  0.4407276E+05 -0.4454668E-08  0.1178705E-08
  0.1500000E+01  0.2503078E+05  0.1469645E+05 -0.1907349E-05 -0.1680851E-04 -0.2988180E-03  0.3874302E-03 -0.5086263E-04  0.8881092E-04  0.8478830E+05  0.4748259E+05  0.5762558E-08  0.3492460E-09
  0.1530000E+01  0.2475573E+05  0.1580555E+05  0.6544824E-05 -0.2616644E-04 -0.3527660E-02 -0.6158352E-02 -0.1337404E-03  0.1022816E-03  0.8375924E+05  0.5089120E+05  0.6258275E-08 -0.7858034E-09
  0.1560000E+01  0.2444355E+05  0.1691306E+05 -0.7488789E-05 -0.2729893E-04 -0.3095774E-02 -0.4840851E-02 -0.3755857E-04 -0.9024143E-04  0.8261704E+05  0.5427062E+05  0.5671516E-08  0.3929017E-08
  0.1590000E+01  0.2409632E+05  0.1801325E+05  0.3403837E-04  0.1072884E-04 -0.1936439E-02  0.2645493E-02  0.4787115E-04 -0.3978610E-04  0.8136823E+05  0.5759727E+05 -0.6937328E-08  0.2910383E-10
  0.1620000E+01  0.2371861E+05  0.1909989E+05 -0.1618892E-04  0.1347065E-04  0.1686885E-02  0.7394314E-02 -0.2733719E-04  0.4610419E-04  0.8002672E+05  0.6085029E+05 -0.1088699E-07 -0.3929017E-09
  0.1650000E+01  0.2331449E+05  0.2016478E+05  0.8019534E-05 -0.5006790E-05  0.1849550E-03  0.3196239E-02  0.1140797E-03  0.3373623E-04  0.7860568E+05  0.6401042E+05  0.2716358E-08  0.4089088E-08
  0.1680000E+01  0.2288573E+05  0.2120171E+05 -0.2341611E-05  0.5960464E-05  0.2704916E-03 -0.1824379E-02  0.9937656E-04 -0.4214048E-04  0.7711720E+05  0.6705721E+05 -0.8488618E-09 -0.5878974E-08
  0.1710000E+01  0.2243600E+05  0.2220652E+05  0.3708733E-04 -0.2837181E-04 -0.1252325E-02 -0.4790545E-02 -0.1087872E-03  0.9703636E-04  0.7557412E+05  0.6997397E+05 -0.1787077E-08 -0.2299203E-08
  0.1740000E+01  0.2196983E+05  0.2317531E+05 -0.2582868E-04 -0.3921986E-04  0.3370745E-04  0.1043010E-01 -0.7539645E-04  0.1856685E-04  0.7398804E+05  0.7275096E+05  0.1756266E-08  0.1018634E-08
  0.1770000E+01  0.2149165E+05  0.2410345E+05 -0.2087846E-05 -0.2002716E-04  0.3063073E-03  0.5583048E-02 -0.4000583E-04 -0.1081824E-04  0.7237320E+05  0.7537847E+05  0.2959712E-09 -0.2066372E-08
  0.1800000E+01  0.2100350E+05  0.2498818E+05 -0.2245108E-04  0.5948544E-04 -0.1562966E-04  0.7910252E-02 -0.4414055E-04  0.6219745E-04  0.7074021E+05  0.7784733E+05  0.2457657E-08  0.1484295E-08
  0.1830000E+01  0.2050862E+05  0.2582849E+05  0.2494927E-04 -0.7510185E-05  0.2021737E-02  0.5690575E-02  0.2279959E-06  0.1230836E-04  0.6909752E+05  0.8015303E+05  0.2321945E-08  0.1164153E-09
  0.1860000E+01  0.2001103E+05  0.2662262E+05 -0.2345731E-04 -0.2765656E-04  0.6709048E-03  0.3117085E-02 -0.1147229E-04 -0.1583397E-03  0.6745618E+05  0.8229423E+05  0.3238975E-08 -0.1920853E-08
  0.1890000E+01  0.1951381E+05  0.2736932E+05  0.1438080E-04 -0.3433228E-04  0.2934945E-02  0.8051872E-02 -0.3607816E-04 -0.1066923E-04  0.6582605E+05  0.8426921E+05  0.8469369E-09  0.2910383E-10
  0.1920000E+01  0.1901751E+05  0.2806783E+05  0.4346172E-06  0.1645088E-04 -0.1303355E-02 -0.1871586E-02 -0.2464901E-04 -0.9301305E-04  0.6421379E+05  0.8607620E+05  0.7882288E-09 -0.2037268E-09
  0.1950000E+01  0.1852537E+05  0.2871976E+05 -0.6724626E-06 -0.3540516E-04 -0.1266675E-03  0.3876209E-02  0.9382382E-04 -0.1673698E-03  0.6262435E+05  0.8772052E+05 -0.1716380E-08  0.2619345E-09
  0.1980000E+01  0.1804016E+05  0.2932487E+05  0.7706459E-05 -0.4744530E-04  0.4170157E-02  0.1543760E-01  0.6938823E-05 -0.5689263E-04  0.6106573E+05  0.8920360E+05  0.9407298E-09  0.1280569E-08
  0.2010000E+01  0.1756261E+05  0.2988375E+05 -0.1666558E-04 -0.2491474E-04  0.2751422E-02  0.7476330E-02  0.8685672E-04 -0.7498264E-04  0.5954288E+05  0.9053025E+05 -0.5458778E-08 -0.1047738E-08
  0.2040000E+01  0.1709471E+05  0.3039798E+05 -0.1577770E-04  0.9608269E-04 -0.1443835E-02 -0.7375717E-02  0.1807131E-04 -0.1524091E-03  0.5805870E+05  0.9170458E+05  0.5977699E-08 -0.9313226E-09
  0.2070000E+01  0.1663690E+05  0.3086879E+05 -0.1433967E-04  0.4410744E-05  0.7270039E-03  0.6488323E-02  0.7888258E-04  0.1115799E-03  0.5661609E+05  0.9273437E+05  0.3093161E-09 -0.4365575E-09
  0.2100000E+01  0.1618936E+05  0.3129696E+05  0.1680283E-04  0.8022785E-04  0.6607601E-03  0.5569458E-02 -0.2371413E-04 -0.8332729E-04  0.5521830E+05  0.9362598E+05 -0.3755780E-08  0.1891749E-08
  0.2130000E+01  0.1575313E+05  0.3168510E+05 -0.5540713E-05 -0.9417534E-05 -0.7701031E-04  0.2777100E-02 -0.3686813E-04  0.4625320E-04  0.5386549E+05  0.9438401E+05  0.4112795E-08 -0.2561137E-08
  0.2160000E+01  0.1532970E+05  0.3203421E+05  0.1412851E-04 -0.1072884E-04  0.2709362E-02  0.1913309E-01 -0.8526775E-04  0.4303455E-04  0.5256058E+05  0.9501465E+05 -0.5376124E-08  0.2910383E-10
  0.2190000E+01  0.1491892E+05  0.3234567E+05 -0.1034236E-04 -0.6890297E-04  0.1133522E-02  0.3863335E-02 -0.2612806E-05 -0.9536743E-04  0.5130442E+05  0.9552670E+05 -0.3946958E-08 -0.1164153E-08
  0.2220000E+01  0.1452094E+05  0.3262151E+05  0.4832809E-06 -0.3600121E-04  0.9940551E-03  0.9316921E-02  0.5290583E-04 -0.5799532E-04  0.5009639E+05  0.9592198E+05 -0.2857944E-08 -0.8643838E-08
  0.2250000E+01  0.1413617E+05  0.3286464E+05 -0.1536475E-05  0.5960464E-04  0.4967584E-03  0.8563519E-02  0.3618664E-04  0.1019239E-03  0.4893597E+05  0.9621275E+05  0.3583005E-08  0.2997695E-08
  0.2280000E+01  0.1376483E+05  0.3307477E+05 -0.9724969E-05  0.1740456E-04  0.1196171E-02  0.1738501E-01 -0.6110784E-04  0.4804134E-04  0.4782496E+05  0.9640037E+05 -0.1876431E-08  0.9022187E-09
  0.2310000E+01  0.1340683E+05  0.3325521E+05  0.1171451E-04 -0.3218651E-04 -0.7532376E-03  0.4640102E-02  0.2137768E-04  0.1325607E-03  0.4676086E+05  0.9649208E+05 -0.7307455E-09 -0.4656613E-09
  0.2340000E+01  0.1306172E+05  0.3340657E+05  0.1304170E-04 -0.9417534E-04  0.1153681E-02  0.2873898E-02 -0.8151063E-04 -0.6496906E-05  0.4574362E+05  0.9649620E+05 -0.7462521E-10  0.3434252E-08
  0.2370000E+01  0.1272960E+05  0.3352993E+05  0.3017957E-05 -0.5912781E-04  0.5217041E-03 -0.1219988E-01 -0.1143051E-04  0.4029274E-04  0.4477271E+05  0.9641538E+05  0.2198137E-08  0.2619345E-08
  0.2400000E+01  0.1240964E+05  0.3362740E+05  0.2160668E-04 -0.2884865E-04 -0.8466839E-03  0.8854866E-02  0.2395361E-04  0.1651049E-04  0.4384622E+05  0.9625341E+05 -0.3880511E-09  0.6897608E-08
  0.2430000E+01  0.1210232E+05  0.3370122E+05  0.1815121E-05 -0.1406670E-04  0.1035109E-02 -0.1757622E-02  0.4180910E-04 -0.5906820E-04  0.4296305E+05  0.9602291E+05  0.2455261E-08 -0.2037268E-08
  0.2460000E+01  0.1180714E+05  0.3375205E+05  0.3682889E-05  0.4720688E-04 -0.4956393E-03 -0.2745628E-02  0.2694324E-04 -0.7688999E-05  0.4212276E+05  0.9572197E+05 -0.9701276E-09 -0.3463356E-08
  0.2490000E+01  0.1152426E+05  0.3378045E+05  0.1704358E-04  0.2622604E-05 -0.1202817E-02  0.2917767E-02  0.7661231E-04 -0.8606911E-04  0.4132362E+05  0.9535542E+05  0.6077908E-09  0.2823072E-08
  0.2520000E+01  0.1125301E+05  0.3378812E+05  0.1031255E-04 -0.8964539E-04 -0.1161628E-02 -0.5984306E-03  0.6717349E-05  0.1581907E-03  0.4056421E+05  0.9492923E+05 -0.8084398E-09 -0.4103640E-08
  0.2550000E+01  0.1099293E+05  0.3377654E+05  0.2804925E-06 -0.3099442E-05 -0.2219630E-03  0.3832817E-02  0.2564168E-04 -0.1668930E-04  0.3984276E+05  0.9444546E+05  0.2259827E-08 -0.2328306E-09
  0.2580000E+01  0.1074404E+05  0.3374609E+05 -0.3280566E-05 -0.1573563E-04  0.3640966E-03  0.2357483E-02  0.2703001E-05 -0.7152557E-04  0.3915832E+05  0.9390990E+05 -0.1246501E-08 -0.2066372E-08
  0.2610000E+01  0.1050553E+05  0.3369897E+05 -0.6257346E-05 -0.9989738E-04  0.5598726E-03 -0.4148483E-04 -0.4664463E-04 -0.1782179E-04  0.3850931E+05  0.9332550E+05  0.4198311E-08  0.7159542E-08
  0.2640000E+01  0.1027717E+05  0.3363388E+05 -0.2980232E-05  0.1168251E-04  0.5653410E-03 -0.8479595E-02  0.1189835E-04 -0.1507998E-03  0.3789361E+05  0.9269080E+05 -0.7937408E-09 -0.1746230E-09
  0.2670000E+01  0.1005853E+05  0.3355238E+05 -0.9108126E-05  0.9536743E-06  0.1727954E-02 -0.3239632E-02 -0.5948186E-04 -0.1314878E-03  0.3731074E+05  0.9201195E+05 -0.1972956E-08  0.7188646E-08
  0.2700000E+01  0.9849292E+04  0.3345513E+05 -0.7329164E-05 -0.2384186E-04 -0.6169743E-03 -0.7333755E-03  0.2473593E-04 -0.1382232E-03  0.3675857E+05  0.9128926E+05  0.1137205E-08  0.1396984E-08
  0.2730000E+01  0.9649188E+04  0.3334165E+05 -0.1580724E-04 -0.8106232E-05 -0.1507888E-02  0.6675720E-03 -0.1033802E-04  0.1764297E-03  0.3623584E+05  0.9052459E+05  0.3267518E-08  0.6839400E-08
  0.2760000E+01  0.9457800E+04  0.3321277E+05  0.1658564E-04  0.8344650E-05  0.1897846E-03  0.4680157E-02  0.3066616E-04 -0.1466274E-04  0.3574157E+05  0.8971567E+05  0.3753972E-08 -0.3812602E-08
  0.2790000E+01  0.9275045E+04  0.3306834E+05 -0.9271834E-05  0.6175041E-04  0.2880678E-03 -0.1958370E-02  0.1250843E-04  0.5775690E-04  0.3527399E+05  0.8886525E+05  0.1888098E-08  0.8731149E-09
  0.2820000E+01  0.9101027E+04  0.3291013E+05 -0.1192093E-04 -0.5364418E-04 -0.2601468E-03 -0.9331703E-03  0.4064530E-04  0.1639128E-04  0.3483325E+05  0.8797648E+05 -0.2513044E-08  0.1041917E-07
  0.2850000E+01  0.8935260E+04  0.3273522E+05  0.5814067E-05 -0.5459785E-04  0.1173689E-03 -0.2037048E-02 -0.8135511E-05 -0.1081824E-03  0.3441681E+05  0.8704148E+05  0.3900935E-08  0.9604264E-09
  0.2880000E+01  0.8777029E+04  0.3254206E+05  0.1585318E-04  0.3099442E-05  0.1007401E-02 -0.1503944E-02 -0.2613912E-04  0.1084805E-04  0.3402279E+05  0.8605252E+05  0.1141921E-08  0.7858034E-09
  0.2910000E+01  0.8626449E+04  0.3233080E+05 -0.8602732E-06 -0.2336502E-04  0.6419276E-03  0.2241135E-03  0.1143959E-04  0.1980066E-03  0.3364951E+05  0.8501064E+05 -0.6250823E-09 -0.2619345E-08
  0.2940000E+01  0.8483248E+04  0.3209835E+05 -0.1356310E-04 -0.1077652E-03  0.3000506E-03 -0.1214981E-02 -0.1641155E-04  0.3159046E-05  0.3329629E+05  0.8390288E+05  0.1672975E-08 -0.4016329E-08
  0.2970000E+01  0.8347128E+04  0.3183920E+05 -0.1641636E-04  0.4267693E-04 -0.4807707E-03 -0.8781910E-02  0.1165000E-04 -0.1097322E-03  0.3295931E+05  0.8271113E+05  0.1886359E-08  0.8731149E-08
  0.3000000E+01  0.8218345E+04  0.3154881E+05  0.1251698E-05 -0.5745888E-04  0.1672109E-03 -0.1653194E-02  0.3212690E-04 -0.4518032E-04  0.3263880E+05  0.8141795E+05  0.3327538E-08 -0.6111804E-08
  0.3030000E+01  0.8095343E+04  0.3120928E+05 -0.1377005E-05 -0.3957748E-04  0.1359537E-02 -0.2064705E-03 -0.5916203E-05 -0.1155734E-03  0.3232359E+05  0.7996423E+05 -0.2257228E-08 -0.4860340E-08
  0.3060000E+01  0.7978029E+04  0.3079506E+05 -0.1410254E-04  0.1382828E-04  0.2215111E-02  0.3361702E-02 -0.7577192E-05 -0.2670288E-04  0.3200832E+05  0.7825918E+05  0.4850638E-09  0.7043127E-08
  0.3090000E+01  0.7865435E+04  0.3024760E+05 -0.5034567E-05  0.2479553E-04  0.1479584E-02 -0.4169464E-02  0.8685111E-05  0.9495020E-04  0.3167002E+05  0.7610769E+05  0.1973221E-08  0.7596100E-08
  0.3120000E+01  0.7754722E+04  0.2941819E+05  0.7450581E-05 -0.2455711E-04 -0.4134805E-02 -0.1005650E-01 -0.3016530E-04  0.5602837E-04  0.3125797E+05  0.7298762E+05  0.7602443E-09  0.2823072E-08
  0.3150000E+01  0.7625286E+04  0.2777661E+05  0.1334009E-04  0.6961823E-04  0.2238561E-02  0.3295422E-02  0.2005270E-04  0.5304813E-05  0.3054694E+05  0.6711255E+05  0.1880200E-08 -0.1513399E-08
  0.3180000E+01  0.7091254E+04  0.2123603E+05 -0.3729976E-05  0.7939339E-04  0.6132905E-03 -0.5651140E-01  0.1847182E-04  0.1245737E-04  0.2702641E+05  0.4531625E+05  0.1002160E-08  0.2764864E-08
  0.3210000E+01  0.6213729E+04  0.4301134E+05  0.4284664E-05  0.1740456E-04 -0.2069934E-02  0.9418631E-01 -0.4012289E-04  0.1094341E-03  0.3037882E+05  0.1236369E+06  0.4307775E-08  0.6577466E-08
  0.3240000E+01  0.7175229E+04  0.3477555E+05  0.5132622E-05  0.5245209E-05 -0.8898200E-02 -0.3246593E-01  0.1614293E-05  0.2944469E-04  0.3159298E+05  0.9153045E+05  0.3099019E-09 -0.1245644E-07
  0.3270000E+01  0.7185382E+04  0.3295728E+05 -0.3098712E-05  0.2837181E-04  0.6619215E-03 -0.5174637E-02 -0.7017672E-06  0.2908707E-04  0.3131651E+05  0.8471581E+05  0.2607774E-08 -0.1012813E-07
  0.3300000E+01  0.7135917E+04  0.3205546E+05 -0.3233100E-05  0.7033348E-04 -0.1904784E-02 -0.2159119E-02 -0.3369920E-04 -0.8624792E-04  0.3108408E+05  0.8131206E+05 -0.2354765E-08  0.1059379E-07
  0.3330000E+01  0.7075370E+04  0.3144945E+05 -0.8752754E-05 -0.9417534E-04  0.1235302E-02 -0.2366066E-02 -0.1986374E-04 -0.6192923E-04  0.3089538E+05  0.7900790E+05 -0.2969377E-08  0.2322486E-07
  0.3360000E+01  0.7012132E+04  0.3097391E+05  0.7450581E-06  0.1907349E-05 -0.3170754E-03 -0.4253387E-03 -0.2757158E-04 -0.2193451E-04  0.3073368E+05  0.7717903E+05  0.1054581E-08 -0.7683411E-08
  0.3390000E+01  0.6949402E+04  0.3056722E+05 -0.1600007E-05 -0.3933907E-04  0.4128369E-03 -0.1473427E-02  0.7912121E-05  0.5573034E-04  0.3059439E+05  0.7560036E+05 -0.6052566E-09  0.1920853E-08
  0.3420000E+01  0.6889827E+04  0.3019961E+05  0.4357064E-05 -0.1859665E-04  0.1077450E-02 -0.1074791E-02 -0.3195471E-04  0.5096197E-04  0.3047441E+05  0.7416640E+05 -0.7595078E-09  0.7043127E-08
  0.3450000E+01  0.6832920E+04  0.2985821E+05  0.5856804E-05  0.3337860E-04 -0.6305308E-03 -0.1180649E-02  0.5317771E-04  0.6073713E-04  0.3037287E+05  0.7282128E+05  0.8604610E-09 -0.9604264E-08
  0.3480000E+01  0.6779875E+04  0.2953218E+05  0.5754931E-05  0.8702278E-04  0.6152295E-03  0.2462864E-02  0.2864620E-04  0.3188848E-04  0.3028789E+05  0.7153478E+05  0.7694116E-09 -0.7275958E-08
  0.3510000E+01  0.6731453E+04  0.2921574E+05 -0.4126475E-05 -0.2169609E-04 -0.9075189E-03  0.9136200E-03  0.2653765E-04  0.9655952E-05  0.3022143E+05  0.7028908E+05 -0.2976717E-08  0.1257285E-07
  0.3540000E+01  0.6686248E+04  0.2890821E+05 -0.3308563E-05 -0.4053116E-04  0.1221558E-02  0.4473686E-02  0.1527159E-04  0.1209974E-04  0.3016795E+05  0.6908717E+05 -0.1134556E-08 -0.2258457E-07
  0.3570000E+01  0.6644055E+04  0.2860686E+05 -0.9600188E-06 -0.4506111E-04 -0.2064592E-02 -0.9298325E-04  0.4031870E-04  0.1448393E-04  0.3012671E+05  0.6792080E+05  0.2188902E-08 -0.5064066E-08
  0.3600000E+01  0.6604306E+04  0.2831046E+05  0.5621049E-05 -0.7414818E-04 -0.1169410E-02  0.1106739E-02 -0.5158285E-04 -0.1132488E-04  0.3009423E+05  0.6679111E+05  0.2039289E-08  0.6053597E-08
  0.3630000E+01  0.6566877E+04  0.2801651E+05 -0.8505566E-05 -0.6914139E-05  0.3954596E-03  0.3176689E-02 -0.6553637E-05 -0.9876490E-04  0.3006879E+05  0.6568824E+05  0.2673864E-08  0.7566996E-08
  0.3660000E+01  0.6531711E+04  0.2772469E+05 -0.6204746E-05 -0.1668930E-05 -0.8113723E-03 -0.8535385E-03  0.2196089E-04 -0.4446507E-04  0.3004851E+05  0.6460783E+05  0.7951866E-09  0.1967419E-07
  0.3690000E+01  0.6498502E+04  0.2743149E+05  0.4829753E-05  0.6318092E-04  0.7470772E-03  0.1931667E-02  0.1191083E-04  0.4839897E-04  0.3003024E+05  0.6354314E+05  0.1433502E-08  0.1461012E-07
  0.3720000E+01  0.6466973E+04  0.2713451E+05  0.1074326E-04 -0.2098083E-04  0.2923351E-03  0.3652573E-03  0.2475716E-04  0.2831221E-04  0.3001295E+05  0.6247712E+05 -0.2491820E-08  0.1146691E-07
  0.3750000E+01  0.6436731E+04  0.2683520E+05  0.1239777E-05  0.6532669E-04  0.3414631E-03  0.7195473E-03 -0.1712839E-04  0.4416704E-04  0.2999327E+05  0.6141309E+05 -0.7799826E-09 -0.4889444E-08
  0.3780000E+01  0.6408733E+04  0.2652565E+05 -0.7805370E-06  0.2121925E-04  0.5388228E-03  0.8544922E-03 -0.2122824E-05 -0.6735325E-04  0.2997302E+05  0.6032166E+05 -0.3025874E-08 -0.9953510E-08
  0.3810000E+01  0.6383150E+04  0.2619833E+05 -0.1206955E-04 -0.4243851E-04  0.8288331E-03  0.2307892E-03  0.1812388E-04 -0.4690886E-04  0.2995252E+05  0.5917216E+05  0.2266814E-08  0.5529728E-08
  0.3840000E+01  0.6359979E+04  0.2584243E+05  0.9926347E-05  0.1549721E-04 -0.4355796E-03  0.2636433E-02  0.2145923E-05  0.6616116E-05  0.2992832E+05  0.5792451E+05  0.3817983E-09  0.1426088E-07
  0.3870000E+01  0.6339641E+04  0.2544596E+05 -0.5336695E-05  0.1811981E-04  0.1878255E-02 -0.9031296E-03  0.9048509E-07 -0.8207560E-04  0.2990140E+05  0.5653402E+05  0.8657826E-09 -0.6053597E-08
  0.3900000E+01  0.6323309E+04  0.2498515E+05  0.5051112E-05 -0.3027916E-04  0.3814009E-02 -0.1731396E-02 -0.9936018E-05  0.1011491E-03  0.2986748E+05  0.5490751E+05  0.2094170E-08  0.1222361E-08
  0.3930000E+01  0.6311297E+04  0.2439744E+05  0.2320486E-05  0.1525879E-04  0.3117945E-03  0.6498337E-02 -0.1368404E-04  0.2491474E-04  0.2981099E+05  0.5285007E+05 -0.7340756E-09  0.1117587E-07
  0.3960000E+01  0.6305710E+04  0.2351989E+05  0.5087467E-05 -0.4601479E-04  0.4667390E-02  0.7323265E-02  0.4383801E-06  0.2729893E-04  0.2969056E+05  0.4979701E+05 -0.7625057E-09 -0.5005859E-08
  0.3990000E+01  0.6303535E+04  0.2163842E+05 -0.8597111E-05 -0.5722046E-05  0.5962362E-02  0.5393505E-02  0.3937230E-04 -0.2086163E-04  0.2929621E+05  0.4336579E+05 -0.1188953E-08  0.3521563E-08
  0.4020000E+01  0.4855970E+04  0.8155963E+04 -0.6968702E-06 -0.2801418E-04  0.9758259E-02  0.4144621E-01 -0.1801484E-05  0.2840161E-04  0.2071428E+05  0.4866412E+04  0.9484085E-09  0.1135049E-08
  0.4050000E+01  0.5768842E+04  0.3004069E+05 -0.9437402E-05  0.7867813E-05 -0.2191810E-02 -0.8006096E-03 -0.3042044E-04 -0.3170967E-04  0.3024343E+05  0.7382920E+05  0.1913307E-09  0.5180482E-08
  0.4080000E+01  0.6058816E+04  0.2688423E+05 -0.5823962E-05 -0.1144409E-04 -0.2161246E-02 -0.8264542E-02  0.1770426E-04  0.4047155E-04  0.3045554E+05  0.6184127E+05  0.2006573E-08 -0.1012813E-07
  0.4110001E+01  0.6115833E+04  0.2577866E+05 -0.8061490E-05 -0.1764297E-04 -0.3550609E-03  0.1712322E-02 -0.1313663E-04 -0.2914667E-04  0.3048464E+05  0.5782558E+05  0.4915917E-08  0.5646143E-08
  0.4140000E+01  0.6135345E+04  0.2512954E+05  0.4405561E-05 -0.5006790E-05  0.1729471E-04 -0.6217957E-02  0.3874212E-05 -0.4965067E-04  0.3051361E+05  0.5555657E+05  0.1016042E-08  0.6635673E-08
  0.4170000E+01  0.6145148E+04  0.2465328E+05  0.3686876E-05  0.4458427E-04  0.4880970E-03 -0.1472473E-02 -0.1264097E-05  0.2205372E-05  0.3055615E+05  0.5393296E+05 -0.1492487E-08  0.1455192E-08
  0.4200000E+01  0.6149554E+04  0.2425687E+05  0.5986187E-05 -0.2264977E-04  0.2197921E-04 -0.2043247E-02  0.3305419E-04  0.6937981E-04  0.3059512E+05  0.5261116E+05 -0.5110494E-10  0.2444722E-08
  0.4230000E+01  0.6150276E+04  0.2390611E+05  0.2335572E-05 -0.5054474E-04  0.1052672E-02 -0.1068115E-03 -0.2914599E-04 -0.6693602E-04  0.3062994E+05  0.5146595E+05 -0.1892093E-08  0.9109499E-08
  0.4260000E+01  0.6150579E+04  0.2358277E+05 -0.1734971E-05 -0.6985664E-04  0.1389341E-02  0.1019955E-02 -0.4035316E-04 -0.1186132E-04  0.3066880E+05  0.5041511E+05 -0.7761661E-09  0.3929017E-08
  0.4290000E+01  0.6150404E+04  0.2327590E+05  0.5103387E-05 -0.4291534E-05 -0.7846591E-03 -0.1985073E-02  0.3321098E-04  0.7468462E-04  0.3070633E+05  0.4942403E+05 -0.1975660E-08  0.9895302E-09
  0.4320000E+01  0.6149023E+04  0.2297549E+05  0.1531508E-05  0.2741814E-04  0.2119276E-04 -0.2708435E-03  0.8200920E-05 -0.7545948E-04  0.3074106E+05  0.4843746E+05 -0.4466524E-08  0.3492460E-09
  0.4350000E+01  0.6149309E+04  0.2268112E+05 -0.8782800E-05  0.1406670E-04  0.2000359E-03  0.2837181E-02  0.2788763E-04  0.1430511E-05  0.3078432E+05  0.4745548E+05 -0.1145441E-08 -0.1068111E-07
  0.4380000E+01  0.6150991E+04  0.2239142E+05  0.1231461E-04  0.6437302E-05 -0.6665212E-03  0.7419586E-03  0.1572723E-04 -0.9775162E-04  0.3083342E+05  0.4648599E+05  0.6380479E-09 -0.1688022E-08
  0.4410000E+01  0.6154621E+04  0.2210402E+05  0.2909697E-05 -0.1668930E-04  0.6055751E-04  0.9613037E-03  0.4736969E-05  0.3254414E-04  0.3089001E+05  0.4552135E+05  0.3000714E-09 -0.1164153E-08
  0.4440000E+01  0.6160500E+04  0.2182027E+05  0.6078348E-05  0.6198883E-05 -0.3573896E-03  0.1002312E-02 -0.5732668E-06  0.3105402E-04  0.3095747E+05  0.4457720E+05 -0.1767062E-08 -0.3114110E-08
  0.4470000E+01  0.6168479E+04  0.2153838E+05 -0.8096465E-05  0.4196167E-04  0.2397787E-03  0.4141808E-02 -0.1650254E-04  0.4190207E-04  0.3103460E+05  0.4364864E+05  0.3073767E-08 -0.1236913E-07
  0.4500000E+01  0.6177352E+04  0.2125810E+05  0.7018447E-05 -0.2622604E-04  0.1587336E-02  0.1345158E-02 -0.5765301E-05  0.1023412E-03  0.3111565E+05  0.4273673E+05 -0.6123931E-10 -0.1164153E-09
  0.4530000E+01  0.6187297E+04  0.2097711E+05  0.1111008E-05 -0.4124641E-04  0.1090785E-02 -0.1044273E-03  0.1766758E-04 -0.3933907E-05  0.3119819E+05  0.4183736E+05 -0.3582365E-08 -0.4103640E-08