VARIABLES="w (rad/s)"
"abs(F   1   1)" "angle(F   1   1)"
"abs(F   1   2)" "angle(F   1   2)"
"abs(F   1   3)" "angle(F   1   3)"
"abs(F   1   4)" "angle(F   1   4)"
"abs(F   1   5)" "angle(F   1   5)"
"abs(F   1   6)" "angle(F   1   6)"
Zone t="Diffraction force - beta =   0.000 deg",I=   420,F=POINT
  0.2000000E-01  0.1171978E+04 -0.1570794E+01  0.3806770E-04  0.3165516E+00  0.1096500E+03 -0.3027373E+01  0.3070242E-04  0.5560189E+00  0.2343282E+04 -0.1570794E+01  0.6548401E-10  0.1574269E+01
  0.4000000E-01  0.2345380E+04 -0.1570787E+01  0.1054771E-03  0.8748948E-01  0.3985049E+03 -0.3016484E+01  0.2135664E-03  0.3009055E+01  0.4689443E+04 -0.1570787E+01  0.1164156E-08  0.1568453E+01
  0.5999999E-01  0.3537770E+04 -0.1570774E+01  0.3069740E-03 -0.1128571E+00  0.8805746E+03 -0.3013048E+01  0.2679582E-03  0.3125354E+01  0.7073536E+04 -0.1570774E+01  0.1891836E-09  0.1580411E+01
  0.8000000E-01  0.4749676E+04 -0.1570757E+01  0.4567394E-03  0.2288676E+00  0.1531036E+04 -0.3009249E+01  0.6519219E-03  0.2564811E+01  0.9496664E+04 -0.1570757E+01  0.2933032E-10 -0.1695151E+01
  0.9999999E-01  0.5933058E+04 -0.1570733E+01  0.8757897E-03 -0.1401477E+00  0.2353702E+04 -0.3006032E+01  0.1722215E-02 -0.3126676E+01  0.1186275E+05 -0.1570733E+01  0.4714961E-08  0.1563080E+01
  0.1200000E+00  0.7162599E+04 -0.1570704E+01  0.5911944E-03 -0.5183333E+00  0.3345332E+04 -0.3002903E+01  0.4165926E-02  0.1151792E-01  0.1432114E+05 -0.1570704E+01  0.2881729E-08  0.1553121E+01
  0.1400000E+00  0.8373533E+04 -0.1570667E+01  0.1079121E-02 -0.2953995E+01  0.4501872E+04 -0.2999728E+01  0.2461089E-02  0.2768374E+01  0.1674230E+05 -0.1570667E+01  0.3492944E-08  0.1554131E+01
  0.1600000E+00  0.9601953E+04 -0.1570623E+01  0.2006885E-02  0.2951392E+01  0.5831160E+04 -0.2996597E+01  0.3062761E-02  0.2326284E+00  0.1919852E+05 -0.1570623E+01  0.2677552E-08  0.1570796E+01
  0.1800000E+00  0.1087086E+05 -0.1570570E+01  0.2212697E-03  0.1041869E+01  0.7320712E+04 -0.2993253E+01  0.6915275E-02  0.3075728E+01  0.2173556E+05 -0.1570570E+01  0.7334873E-08  0.1584684E+01
  0.2000000E+00  0.1215077E+05 -0.1570507E+01  0.4857235E-03  0.2706472E+01  0.8980905E+04 -0.2989667E+01  0.5857368E-02  0.2205475E+00  0.2429466E+05 -0.1570507E+01  0.2584840E-08 -0.1435269E+01
  0.2200000E+00  0.1342230E+05 -0.1570432E+01  0.4947145E-02 -0.3134966E+01  0.1081320E+05 -0.2986073E+01  0.1056067E-01 -0.9837585E-01  0.2683703E+05 -0.1570432E+01  0.6578496E-08  0.1553099E+01
  0.2400000E+00  0.1473042E+05 -0.1570343E+01  0.3893872E-02 -0.2648210E+01  0.1280553E+05 -0.2982101E+01  0.1545622E-01 -0.3130355E+01  0.2945249E+05 -0.1570343E+01  0.1362212E-07 -0.1585752E+01
  0.2600000E+00  0.1608710E+05 -0.1570239E+01  0.5021428E-02 -0.2966398E+01  0.1497369E+05 -0.2977673E+01  0.1088311E-01  0.3064435E+01  0.3216506E+05 -0.1570239E+01  0.1036297E-07  0.1551136E+01
  0.2800000E+00  0.1748228E+05 -0.1570117E+01  0.9147695E-02  0.2536225E-01  0.1731785E+05 -0.2973158E+01  0.5484516E-02  0.1913959E+01  0.3495461E+05 -0.1570117E+01  0.6993645E-08  0.1520838E+01
  0.3000000E+00  0.1889978E+05 -0.1569972E+01  0.6587083E-02 -0.1469090E+00  0.1981628E+05 -0.2968278E+01  0.1730209E-01  0.2000635E+00  0.3778882E+05 -0.1569972E+01  0.6405223E-08 -0.1543530E+01
  0.3200000E+00  0.2033178E+05 -0.1569800E+01  0.1144846E-01 -0.1983584E+00  0.2249339E+05 -0.2962784E+01  0.1602551E-01  0.1786146E+00  0.4065191E+05 -0.1569800E+01  0.5250318E-08 -0.1637365E+01
  0.3400000E+00  0.2179192E+05 -0.1569596E+01  0.2515233E-02  0.2364037E+01  0.2535156E+05 -0.2956754E+01  0.1171948E-01 -0.2918049E+01  0.4357142E+05 -0.1569596E+01  0.2924899E-08  0.1670465E+01
  0.3600000E+00  0.2332493E+05 -0.1569355E+01  0.1413392E-01  0.2937891E+01  0.2839378E+05 -0.2950555E+01  0.9141649E-02  0.2429085E+01  0.4663650E+05 -0.1569355E+01  0.3292722E-09  0.2356194E+01
  0.3800000E+00  0.2492694E+05 -0.1569074E+01  0.4808220E-02  0.2496217E+01  0.3157950E+05 -0.2943928E+01  0.2410779E-01  0.2984512E+01  0.4983956E+05 -0.1569074E+01  0.1458680E-08 -0.1071450E+01
  0.4000000E+00  0.2659727E+05 -0.1568737E+01  0.1090553E-01  0.6525025E-01  0.3493855E+05 -0.2936426E+01  0.2325068E-02  0.3100975E+01  0.5317926E+05 -0.1568737E+01  0.6535867E-08  0.1642104E+01
  0.4200000E+00  0.2832362E+05 -0.1568334E+01  0.5072930E-02 -0.4299309E-01  0.3849262E+05 -0.2928073E+01  0.5349065E-01 -0.3011373E+01  0.5663093E+05 -0.1568334E+01  0.2305494E-07 -0.1550597E+01
  0.4400000E+00  0.3009863E+05 -0.1567852E+01  0.1267625E-01  0.3981607E+00  0.4224056E+05 -0.2919294E+01  0.1568382E-01  0.2880074E+01  0.6017985E+05 -0.1567852E+01  0.1862645E-08 -0.1570796E+01
  0.4600000E+00  0.3190662E+05 -0.1567284E+01  0.6261429E-02  0.2620945E+01  0.4611602E+05 -0.2910459E+01  0.2590712E-01 -0.3030211E+01  0.6379486E+05 -0.1567284E+01  0.4160118E-08 -0.1883698E+01
  0.4800000E+00  0.3378377E+05 -0.1566607E+01  0.3697755E-02 -0.1459181E+01  0.5011761E+05 -0.2900675E+01  0.1550004E-01  0.8971700E+00  0.6754804E+05 -0.1566607E+01  0.9041508E-08 -0.1778293E+01
  0.5000000E+00  0.3577966E+05 -0.1565793E+01  0.1484598E-01  0.9153500E+00  0.5429304E+05 -0.2889737E+01  0.5719149E-01 -0.2916534E+01  0.7153848E+05 -0.1565793E+01  0.7923943E-08 -0.1614885E+01
  0.5200000E+00  0.3789141E+05 -0.1564826E+01  0.1914176E-01  0.1312330E+00  0.5864889E+05 -0.2877915E+01  0.3918856E-01 -0.2640209E+01  0.7576086E+05 -0.1564826E+01  0.1562743E-07  0.1511166E+01
  0.5399999E+00  0.4012203E+05 -0.1563678E+01  0.4407847E-01  0.2816606E+01  0.6315456E+05 -0.2865559E+01  0.3107966E-01 -0.1955043E+01  0.8022070E+05 -0.1563678E+01  0.1695033E-08  0.1292497E+01
  0.5599999E+00  0.4245038E+05 -0.1562348E+01  0.7059680E-02 -0.4320917E+00  0.6769570E+05 -0.2853466E+01  0.2679826E-01 -0.3140881E+01  0.8487613E+05 -0.1562348E+01  0.6053597E-08  0.1176005E+01
  0.5799999E+00  0.4486811E+05 -0.1560772E+01  0.1351015E-01  0.2748397E+01  0.7232634E+05 -0.2840513E+01  0.1752626E-01  0.5574371E+00  0.8971000E+05 -0.1560772E+01  0.4248760E-08 -0.1735945E+01
  0.5999999E+00  0.4735196E+05 -0.1558897E+01  0.8221088E-02  0.2561794E+01  0.7702759E+05 -0.2826281E+01  0.9564370E-01  0.2904000E+00  0.9467621E+05 -0.1558897E+01  0.2468005E-07  0.1570796E+01
  0.6199999E+00  0.4987845E+05 -0.1556673E+01  0.1096125E-01 -0.1248048E+01  0.8188652E+05 -0.2811370E+01  0.1218678E+00  0.3049831E+01  0.9972762E+05 -0.1556673E+01  0.3969677E-07 -0.1494474E+01
  0.6399999E+00  0.5252238E+05 -0.1554083E+01  0.1949395E-02  0.2375308E+01  0.8678774E+05 -0.2795985E+01  0.3162004E-01 -0.1901307E+01  0.1050138E+06 -0.1554083E+01  0.1877141E-08 -0.1446441E+01
  0.6599999E+00  0.5531620E+05 -0.1551176E+01  0.4668420E-01 -0.1193633E+01  0.9163613E+05 -0.2781782E+01  0.2544014E-01 -0.2013830E+01  0.1105999E+06 -0.1551176E+01  0.1957024E-07 -0.1606495E+01
  0.6799999E+00  0.5826021E+05 -0.1547853E+01  0.1042611E-01 -0.6636433E-01  0.9645387E+05 -0.2767110E+01  0.8877737E-01 -0.2576310E+01  0.1164861E+06 -0.1547853E+01  0.5920495E-07  0.1523587E+01
  0.6999999E+00  0.6132887E+05 -0.1544052E+01  0.8183699E-02  0.2751024E+01  0.1012831E+06 -0.2751938E+01  0.7816859E-01 -0.7381737E-01  0.1226214E+06 -0.1544052E+01  0.1640424E-07  0.1684588E+01
  0.7199998E+00  0.6447975E+05 -0.1539717E+01  0.5924645E-01  0.8322108E-02  0.1060538E+06 -0.2735843E+01  0.1596862E-01  0.2573915E+01  0.1289212E+06 -0.1539717E+01  0.5733357E-07  0.1615482E+01
  0.7399999E+00  0.6770656E+05 -0.1534781E+01  0.1010077E+00  0.1133149E+00  0.1108953E+06 -0.2719590E+01  0.1673899E-01 -0.2963986E+01  0.1353731E+06 -0.1534780E+01  0.6953962E-07  0.1637810E+01
  0.7599999E+00  0.7095437E+05 -0.1529347E+01  0.6957530E-01  0.1736089E-01  0.1156092E+06 -0.2705031E+01  0.3547300E-01  0.1485213E+01  0.1418667E+06 -0.1529347E+01  0.4346643E-07  0.1484986E+01
  0.7799999E+00  0.7420202E+05 -0.1523305E+01  0.2764151E-01 -0.4660546E+00  0.1202243E+06 -0.2690885E+01  0.4469229E-01 -0.3960320E+00  0.1483596E+06 -0.1523304E+01  0.1397760E-07 -0.1047518E+01
  0.8000000E+00  0.7743977E+05 -0.1516575E+01  0.3326742E-01  0.2454080E+00  0.1247758E+06 -0.2676816E+01  0.1541239E+00  0.2741668E+01  0.1548334E+06 -0.1516575E+01  0.7957223E-08  0.1929567E+01
  0.8199999E+00  0.8075845E+05 -0.1509178E+01  0.5200965E-01  0.8101655E+00  0.1292152E+06 -0.2662406E+01  0.1332673E+00 -0.2949981E+00  0.1614685E+06 -0.1509177E+01  0.4760917E-07 -0.1639316E+01
  0.8399999E+00  0.8416257E+05 -0.1501078E+01  0.2568262E-01 -0.2587670E+01  0.1336048E+06 -0.2647831E+01  0.1496000E+00 -0.6914009E+00  0.1682745E+06 -0.1501077E+01  0.2740685E-07  0.1741531E+01
  0.8599999E+00  0.8763282E+05 -0.1492267E+01  0.2016050E-01  0.1302141E+01  0.1379301E+06 -0.2633335E+01  0.1054893E+00  0.6775026E+00  0.1752131E+06 -0.1492267E+01  0.7508562E-07 -0.1695151E+01
  0.8799999E+00  0.9112008E+05 -0.1482848E+01  0.4625221E-01  0.8516318E+00  0.1421382E+06 -0.2620375E+01  0.6321473E-01 -0.7960179E+00  0.1821853E+06 -0.1482847E+01  0.1229381E-07  0.6510767E+00
  0.8999999E+00  0.9460268E+05 -0.1472703E+01  0.6061246E-01 -0.2090342E+00  0.1462796E+06 -0.2608121E+01  0.8820914E-01 -0.2450988E+01  0.1891480E+06 -0.1472702E+01  0.3930358E-07 -0.1810028E+01
  0.9199999E+00  0.9804109E+05 -0.1461768E+01  0.7407511E-01 -0.2582170E+01  0.1502530E+06 -0.2595766E+01  0.9015770E-01  0.2585245E+01  0.1960227E+06 -0.1461768E+01  0.6053597E-07 -0.1322086E+01
  0.9399999E+00  0.1013894E+06 -0.1449987E+01  0.4117262E-01  0.2774743E+01  0.1541239E+06 -0.2583644E+01  0.3683759E-01  0.1468227E+01  0.2027171E+06 -0.1449986E+01  0.5255994E-07 -0.1446441E+01
  0.9599999E+00  0.1046014E+06 -0.1437293E+01  0.8500777E-01  0.9990396E+00  0.1578287E+06 -0.2571271E+01  0.1705214E+00  0.5788555E+00  0.2091389E+06 -0.1437292E+01  0.4748832E-08 -0.2944197E+01
  0.9799999E+00  0.1076690E+06 -0.1423665E+01  0.6383707E-01 -0.1061752E+01  0.1614366E+06 -0.2559020E+01  0.1425686E+00 -0.2786227E+01  0.2152723E+06 -0.1423664E+01  0.3575903E-07  0.1427058E+01
  0.9999999E+00  0.1105485E+06 -0.1409088E+01  0.1279570E+00 -0.1598005E+01  0.1649588E+06 -0.2547451E+01  0.8686509E-01  0.1628319E+01  0.2210295E+06 -0.1409088E+01  0.6079332E-07  0.1478750E+01
  0.1020000E+01  0.1132993E+06 -0.1393766E+01  0.3021226E-01 -0.9141067E+00  0.1683511E+06 -0.2536653E+01  0.7392038E-01 -0.1436769E+01  0.2265291E+06 -0.1393765E+01  0.5250422E-07 -0.1686351E+01
  0.1040000E+01  0.1159439E+06 -0.1377731E+01  0.1060545E+00  0.2106029E+01  0.1716334E+06 -0.2526315E+01  0.1411566E+00 -0.1165257E+01  0.2318165E+06 -0.1377730E+01  0.6168035E-07 -0.1653938E+01
  0.1060000E+01  0.1184383E+06 -0.1360973E+01  0.6783788E-01  0.5528651E+00  0.1747249E+06 -0.2515858E+01  0.1198809E+00  0.1924239E+01  0.2368037E+06 -0.1360972E+01  0.4053394E-07  0.2315567E+01
  0.1080000E+01  0.1207337E+06 -0.1343443E+01  0.6987509E-01 -0.2681833E+01  0.1777370E+06 -0.2506074E+01  0.1064509E+00 -0.2660953E+01  0.2413933E+06 -0.1343442E+01  0.4702026E-07 -0.1431700E+01
  0.1100000E+01  0.1227882E+06 -0.1325136E+01  0.1743343E-01  0.1582640E+01  0.1805400E+06 -0.2496029E+01  0.8648122E-01  0.1589666E+01  0.2455005E+06 -0.1325134E+01  0.7279226E-07  0.1506781E+01
  0.1120000E+01  0.1245683E+06 -0.1306037E+01  0.5351380E-01  0.1306647E+01  0.1832115E+06 -0.2486286E+01  0.1141211E+00 -0.1713866E+01  0.2490595E+06 -0.1306035E+01  0.3918478E-07  0.1511343E+01
  0.1140000E+01  0.1260462E+06 -0.1286152E+01  0.2653143E-01  0.2957669E+01  0.1856444E+06 -0.2475999E+01  0.8737871E-01 -0.1704457E+01  0.2520140E+06 -0.1286150E+01  0.3123751E-07 -0.1107149E+01
  0.1160000E+01  0.1271957E+06 -0.1265535E+01  0.9872344E-01 -0.1618554E+01  0.1880380E+06 -0.2467041E+01  0.1422816E+00  0.7747861E+00  0.2543123E+06 -0.1265532E+01  0.4293185E-07  0.1635921E+01
  0.1180000E+01  0.1280212E+06 -0.1244343E+01  0.8091284E-01  0.2061572E+01  0.1902630E+06 -0.2458363E+01  0.4308979E-01  0.1786262E+00  0.2559624E+06 -0.1244340E+01  0.9313226E-08 -0.3141592E+01
  0.1200000E+01  0.1285160E+06 -0.1222657E+01  0.1328917E+00  0.1425761E+01  0.1922779E+06 -0.2449470E+01  0.2540816E+00  0.1743073E+01  0.2569518E+06 -0.1222655E+01  0.7265658E-07 -0.1590025E+01
  0.1220000E+01  0.1286339E+06 -0.1200464E+01  0.7432611E-01  0.1829151E+01  0.1942018E+06 -0.2441375E+01  0.8122706E-01 -0.2649682E+01  0.2571875E+06 -0.1200462E+01  0.4472531E-07  0.1539557E+01
  0.1240000E+01  0.1283771E+06 -0.1177821E+01  0.9362101E-01  0.1558246E+01  0.1959386E+06 -0.2433429E+01  0.2265752E+00  0.4075523E-01  0.2566736E+06 -0.1177817E+01  0.7780864E-07 -0.1378096E+01
  0.1260000E+01  0.1277104E+06 -0.1154708E+01  0.5313663E-01 -0.6408412E+00  0.1974950E+06 -0.2425582E+01  0.2953949E-01  0.2173323E+01  0.2553405E+06 -0.1154705E+01  0.3199537E-07  0.1198398E+01
  0.1280000E+01  0.1266048E+06 -0.1131104E+01  0.2851189E-01  0.2936696E+01  0.1989295E+06 -0.2418435E+01  0.1339942E+00  0.7875069E+00  0.2531301E+06 -0.1131100E+01  0.3666916E-07 -0.8663023E+00
  0.1300000E+01  0.1250859E+06 -0.1107181E+01  0.6134630E-01 -0.2446240E+01  0.2001402E+06 -0.2410894E+01  0.1374613E+00  0.2829280E+01  0.2500931E+06 -0.1107177E+01  0.5597435E-07  0.1629064E+01
  0.1320000E+01  0.1231426E+06 -0.1083022E+01  0.1074611E+00 -0.1141711E+00  0.2011947E+06 -0.2403642E+01  0.6227202E-01 -0.2063446E+01  0.2462076E+06 -0.1083017E+01  0.5114649E-07  0.1831108E+00
  0.1340000E+01  0.1207754E+06 -0.1058664E+01  0.1541791E+00 -0.1398904E+01  0.2020885E+06 -0.2396741E+01  0.2371031E+00 -0.2006851E+01  0.2414744E+06 -0.1058658E+01  0.9291314E-07 -0.7499520E+00
  0.1360000E+01  0.1179883E+06 -0.1034148E+01  0.7488422E-01  0.8066566E+00  0.2028012E+06 -0.2389952E+01  0.9413458E-01  0.3096292E+01  0.2359016E+06 -0.1034142E+01  0.1136299E-06  0.2510386E+01
  0.1380000E+01  0.1147865E+06 -0.1009448E+01  0.7016230E-01  0.2265841E+01  0.2033530E+06 -0.2383468E+01  0.1127590E+00 -0.2388357E+01  0.2295001E+06 -0.1009442E+01  0.7725067E-07  0.1722071E+01
  0.1400000E+01  0.1111695E+06 -0.9845640E+00  0.1070623E+00 -0.5117744E+00  0.2037317E+06 -0.2377094E+01  0.3211539E-01  0.2544991E+01  0.2222680E+06 -0.9845564E+00  0.3207659E-07 -0.2344157E+00
  0.1420000E+01  0.1071550E+06 -0.9595338E+00  0.1714946E+00  0.1040033E+01  0.2039419E+06 -0.2370988E+01  0.1414108E+00 -0.1372081E+01  0.2142417E+06 -0.9595255E+00  0.5879147E-07 -0.3078186E+01
  0.1440000E+01  0.1027514E+06 -0.9343587E+00  0.9209786E-01 -0.1128049E+01  0.2039831E+06 -0.2365067E+01  0.1232206E+00  0.1580603E+01  0.2054370E+06 -0.9343494E+00  0.4898305E-07  0.1149676E+01
  0.1460000E+01  0.9797931E+05 -0.9090350E+00  0.4516288E-01  0.1727155E+01  0.2038619E+06 -0.2359467E+01  0.1620569E+00  0.1401584E+01  0.1958957E+06 -0.9090241E+00  0.5141921E-07 -0.1360968E+01
  0.1480000E+01  0.9285167E+05 -0.8834559E+00  0.6727606E-01 -0.2539361E+01  0.2035750E+06 -0.2354125E+01  0.6424171E-01 -0.3969699E+00  0.1856435E+06 -0.8834440E+00  0.2891603E-07  0.2606024E+00
  0.1500000E+01  0.8739659E+05 -0.8575719E+00  0.5794592E-01  0.2214011E+01  0.2031211E+06 -0.2348806E+01  0.3026428E+00  0.1715004E+01  0.1747367E+06 -0.8575597E+00  0.6047863E-07 -0.1741008E+01
  0.1520000E+01  0.8163212E+05 -0.8311831E+00  0.6723721E-01 -0.2614595E+01  0.2025060E+06 -0.2343908E+01  0.1647642E+00  0.1775117E+01  0.1632111E+06 -0.8311689E+00  0.2634178E-08 -0.2356194E+01
  0.1540000E+01  0.7558059E+05 -0.8041409E+00  0.6527720E-01 -0.1836785E+01  0.2017328E+06 -0.2338906E+01  0.6837321E-01  0.2160091E+01  0.1511119E+06 -0.8041227E+00  0.6202916E-07 -0.8491415E+00
  0.1560000E+01  0.6926405E+05 -0.7760696E+00  0.3761008E-01 -0.1758137E+01  0.2008013E+06 -0.2334689E+01  0.2552069E+00 -0.1511278E+01  0.1384827E+06 -0.7760502E+00  0.1980019E-07 -0.2289626E+01
  0.1580000E+01  0.6271350E+05 -0.7466093E+00  0.6741799E-01  0.7468339E+00  0.1997079E+06 -0.2330207E+01  0.4436385E-01  0.1803595E+01  0.1253856E+06 -0.7465862E+00  0.3073364E-07  0.0000000E+00
  0.1600000E+01  0.5594790E+05 -0.7148899E+00  0.1075685E+00 -0.1375016E+01  0.1984729E+06 -0.2325752E+01  0.3686495E+00  0.1817576E+01  0.1118586E+06 -0.7148629E+00  0.5919578E-07  0.2220819E+00
  0.1620000E+01  0.4899527E+05 -0.6797596E+00  0.1062332E+00  0.1155794E+01  0.1970593E+06 -0.2322447E+01  0.2784477E+00 -0.1468458E+01  0.9795778E+05 -0.6797268E+00  0.2700835E-07  0.2380580E+01
  0.1640000E+01  0.4188873E+05 -0.6390716E+00  0.6464590E-01 -0.6332747E+00  0.1955167E+06 -0.2318498E+01  0.1606817E+00 -0.1853859E+01  0.8374907E+05 -0.6390310E+00  0.1501713E-07 -0.1051650E+01
  0.1660000E+01  0.3465959E+05 -0.5888762E+00  0.2956961E-01  0.1352925E+01  0.1938214E+06 -0.2314922E+01  0.1147738E-01  0.1084554E+01  0.6929526E+05 -0.5888256E+00  0.1919971E-07 -0.2743070E+01
  0.1680000E+01  0.2736144E+05 -0.5211148E+00  0.6264914E-01 -0.7958394E+00  0.1919613E+06 -0.2311939E+01  0.6503054E-01 -0.1484547E+01  0.5470375E+05 -0.5210452E+00  0.3167866E-07  0.2717398E+01
  0.1700000E+01  0.2007777E+05 -0.4156973E+00  0.6489153E-01  0.2971694E+01  0.1899757E+06 -0.2308941E+01  0.6856310E-01  0.2375493E+01  0.4014124E+05 -0.4155947E+00  0.1527483E-07  0.2485897E+01
  0.1720000E+01  0.1305192E+05 -0.2105617E+00  0.1076339E+00 -0.1925259E+01  0.1878214E+06 -0.2306645E+01  0.4246454E-01 -0.2835680E+01  0.2609473E+05 -0.2103887E+00  0.1192675E-07 -0.6747410E+00
  0.1740000E+01  0.7382214E+04  0.3459266E+00  0.6099115E-01  0.2623851E+01  0.1855970E+06 -0.2303473E+01  0.3424057E-01 -0.1189400E+01  0.1476139E+05  0.3462312E+00  0.2123742E-07 -0.9097531E+00
  0.1760000E+01  0.7631826E+04  0.1447704E+01  0.8130894E-01  0.1829106E+01  0.1832025E+06 -0.2301217E+01  0.3329338E-01  0.2062425E+01  0.1526370E+05  0.1447751E+01  0.3357931E-07  0.1515298E+01
  0.1780000E+01  0.1353803E+05  0.1967965E+01  0.2862417E-01 -0.2358056E+01  0.1807034E+06 -0.2298913E+01  0.2140634E-01 -0.9163599E-01  0.2707231E+05  0.1967900E+01  0.1317089E-07 -0.1428899E+01
  0.1800000E+01  0.2073629E+05  0.2161570E+01  0.1728580E+00 -0.1306775E+01  0.1780154E+06 -0.2297740E+01  0.2742424E+00 -0.9638059E+00  0.4146405E+05  0.2161508E+01  0.5245256E-07 -0.1464061E+01
  0.1820000E+01  0.2824346E+05  0.2260785E+01  0.3418416E-01  0.2670609E+01  0.1752685E+06 -0.2296004E+01  0.1971737E+00  0.2751868E+01  0.5647359E+05  0.2260731E+01  0.2818694E-07  0.1438245E+01
  0.1840000E+01  0.3583643E+05  0.2323314E+01  0.7672480E-01 -0.1492134E+01  0.1723634E+06 -0.2295016E+01  0.2334909E+00  0.1289321E+01  0.7165478E+05  0.2323268E+01  0.3766967E-07  0.1719686E+01
  0.1860000E+01  0.4343896E+05  0.2367955E+01  0.1074624E+00 -0.1177124E+01  0.1693393E+06 -0.2294334E+01  0.4769290E-01 -0.2769753E+01  0.8685512E+05  0.2367914E+01  0.3252970E-07 -0.1158386E+01
  0.1880000E+01  0.5100793E+05  0.2402503E+01  0.6124619E-01  0.1433621E+01  0.1662784E+06 -0.2293252E+01  0.8658960E-01 -0.1418438E+01  0.1019884E+06  0.2402465E+01  0.5268356E-07  0.1712693E+01
  0.1900000E+01  0.5851414E+05  0.2430725E+01  0.4003857E-01  0.1517560E+01  0.1630810E+06 -0.2292769E+01  0.1035740E+00  0.2576821E+01  0.1169964E+06  0.2430690E+01  0.6585445E-07  0.2072400E+01
  0.1920000E+01  0.6593758E+05  0.2454630E+01  0.1407333E-01  0.2428468E+01  0.1596960E+06 -0.2293348E+01  0.2190161E+00  0.2344740E+01  0.1318386E+06  0.2454601E+01  0.3543924E-07 -0.1518213E+01
  0.1940000E+01  0.7325203E+05  0.2475578E+01  0.6954504E-01  0.1370063E+01  0.1563628E+06 -0.2293131E+01  0.1073474E+00  0.2794308E+01  0.1464631E+06  0.2475551E+01  0.7716501E-07  0.5176491E+00
  0.1960000E+01  0.8044513E+05  0.2494286E+01  0.9121604E-01 -0.1119021E+01  0.1528527E+06 -0.2294001E+01  0.2427462E+00 -0.1441647E+01  0.1608452E+06  0.2494261E+01  0.8290863E-07  0.2880267E+01
  0.1980000E+01  0.8750263E+05  0.2511166E+01  0.5234791E-01  0.1459803E+01  0.1493155E+06 -0.2294844E+01  0.1099128E+00 -0.5361488E+00  0.1749558E+06  0.2511142E+01  0.6543163E-07 -0.3056087E+01
  0.2000000E+01  0.9440477E+05  0.2526596E+01  0.4049005E-01 -0.1648435E+01  0.1456310E+06 -0.2296143E+01  0.1055344E+00 -0.2214427E+01  0.1887558E+06  0.2526573E+01  0.5402474E-07  0.9445349E+00
  0.2020000E+01  0.1011355E+06  0.2540832E+01  0.8339780E-01  0.1661304E+01  0.1418833E+06 -0.2298349E+01  0.1405222E+00 -0.7756659E+00  0.2022135E+06  0.2540812E+01  0.2832507E-07  0.2379446E+01
  0.2040000E+01  0.1076848E+06  0.2554073E+01  0.1111790E+00 -0.1582205E+01  0.1380644E+06 -0.2301170E+01  0.3910107E-01 -0.8675139E+00  0.2153083E+06  0.2554052E+01  0.7655562E-07 -0.6386350E+00
  0.2060000E+01  0.1140422E+06  0.2566458E+01  0.6448483E-01 -0.1137958E+01  0.1341729E+06 -0.2304665E+01  0.1174889E+00  0.3099712E+01  0.2280194E+06  0.2566439E+01  0.8717199E-07  0.2212161E+01
  0.2080000E+01  0.1201872E+06  0.2578137E+01  0.9183069E-01 -0.1413920E+01  0.1302220E+06 -0.2308915E+01  0.8615100E-01  0.3749459E+00  0.2403059E+06  0.2578119E+01  0.9738001E-07 -0.2158799E+01
  0.2100000E+01  0.1261151E+06  0.2589088E+01  0.9803395E-02 -0.1277290E+01  0.1261871E+06 -0.2314420E+01  0.3282275E-01  0.1887172E+01  0.2521584E+06  0.2589071E+01  0.6519923E-07 -0.1951303E+01
  0.2120000E+01  0.1318105E+06  0.2599422E+01  0.3282233E-01 -0.1365503E+01  0.1220684E+06 -0.2321519E+01  0.1021082E+00 -0.1654542E+01  0.2635458E+06  0.2599407E+01  0.4914878E-07 -0.2042918E+01
  0.2140000E+01  0.1372631E+06  0.2609213E+01  0.5984860E-01 -0.1419509E+01  0.1178567E+06 -0.2330639E+01  0.5134938E-01  0.2718139E+01  0.2744483E+06  0.2609197E+01  0.4314597E-07  0.3183376E+00
  0.2160000E+01  0.1424595E+06  0.2618488E+01  0.3310915E-01  0.2316131E+01  0.1135034E+06 -0.2343167E+01  0.1802149E+00 -0.1664728E+01  0.2848379E+06  0.2618475E+01  0.9613848E-07  0.6202495E+00
  0.2180000E+01  0.1473882E+06  0.2627270E+01  0.5932293E-01  0.2843102E+01  0.1089093E+06 -0.2362421E+01  0.3207072E-01  0.2056808E+01  0.2946927E+06  0.2627258E+01  0.1864373E-06  0.8507915E+00
  0.2200000E+01  0.1520431E+06  0.2635664E+01  0.3319983E-01 -0.2813536E+01  0.1037873E+06 -0.2396847E+01  0.7850191E-01 -0.1817173E+01  0.3040002E+06  0.2635653E+01  0.7836957E-07 -0.2364598E+01
  0.2220000E+01  0.1564188E+06  0.2643606E+01  0.3844574E-01 -0.3013693E+01  0.9618977E+05 -0.2485760E+01  0.1015522E+00  0.2534807E+01  0.3127490E+06  0.2643595E+01  0.1343632E-06  0.2963909E+01
  0.2240000E+01  0.1604963E+06  0.2651241E+01  0.7177846E-02  0.2120171E+01  0.2054725E+05  0.2727769E+01  0.2276147E-01  0.1110922E+00  0.3209019E+06  0.2651231E+01  0.3280848E-07  0.1457004E+01
  0.2260000E+01  0.1642729E+06  0.2658613E+01  0.7546806E-01  0.1349882E+01  0.9829595E+05 -0.2103046E+01  0.2344344E-01  0.2817183E+01  0.3284529E+06  0.2658605E+01  0.1414736E-06 -0.2679877E+01
  0.2280000E+01  0.1677429E+06  0.2665628E+01  0.3768018E-01  0.2431543E+01  0.9266439E+05 -0.2222036E+01  0.1623231E+00 -0.1448476E+01  0.3353911E+06  0.2665620E+01  0.6331805E-07 -0.2094503E+01
  0.2300000E+01  0.1708986E+06  0.2672238E+01  0.8048730E-01 -0.1604477E+01  0.8791734E+05 -0.2265019E+01  0.9695408E-01  0.1801998E+01  0.3417008E+06  0.2672231E+01  0.7320006E-07 -0.6193251E+00
  0.2320000E+01  0.1737237E+06  0.2678493E+01  0.5531414E-01 -0.1798408E+01  0.8349188E+05 -0.2290316E+01  0.5397798E-01 -0.9468530E+00  0.3473498E+06  0.2678487E+01  0.1078147E-06 -0.4926250E+00
  0.2340000E+01  0.1762125E+06  0.2684477E+01  0.3499509E-01  0.2251372E+01  0.7920221E+05 -0.2309483E+01  0.4387397E-01 -0.2328102E+01  0.3523262E+06  0.2684472E+01  0.4283641E-07  0.4198799E+00
  0.2360000E+01  0.1783669E+06  0.2690146E+01  0.4559053E-01  0.1287774E+01  0.7503344E+05 -0.2326482E+01  0.7789286E-01 -0.9692240E+00  0.3566334E+06  0.2690142E+01  0.1299662E-06  0.1188959E+01
  0.2380000E+01  0.1801923E+06  0.2695640E+01  0.3262502E-01  0.2459058E+01  0.7094355E+05 -0.2342615E+01  0.6177982E-01  0.1547330E+01  0.3602835E+06  0.2695637E+01  0.2722156E-06 -0.4449117E-01
  0.2400000E+01  0.1816695E+06  0.2700897E+01  0.1916150E-01  0.2612995E+01  0.6690538E+05 -0.2358775E+01  0.2991278E-01  0.1824219E+01  0.3632374E+06  0.2700894E+01  0.1612137E-06 -0.2493470E+01
  0.2420000E+01  0.1827991E+06  0.2705819E+01  0.2186300E-01  0.1503745E+01  0.6295875E+05 -0.2375526E+01  0.3877566E-01 -0.8381001E+00  0.3654963E+06  0.2705818E+01  0.1119225E-06 -0.3087479E+01
  0.2440000E+01  0.1835750E+06  0.2710397E+01  0.1261926E-01 -0.1261163E+01  0.5909903E+05 -0.2393356E+01  0.2537393E-01  0.4931675E+00  0.3670475E+06  0.2710395E+01  0.7522988E-07  0.2629947E+00
  0.2460000E+01  0.1839934E+06  0.2714762E+01  0.6229720E-01  0.1764712E+01  0.5529468E+05 -0.2412759E+01  0.9856515E-01  0.9405317E+00  0.3678841E+06  0.2714762E+01  0.1082299E-06  0.3081321E+01
  0.2480000E+01  0.1840518E+06  0.2718816E+01  0.1869557E-01 -0.9237347E+00  0.5157425E+05 -0.2433973E+01  0.6181588E-01  0.1058868E+01  0.3680008E+06  0.2718816E+01  0.3977260E-06 -0.3071286E+01
  0.2500000E+01  0.1837530E+06  0.2722550E+01  0.6097643E-01 -0.1289816E+01  0.4794727E+05 -0.2457562E+01  0.6485755E-01  0.2442976E+01  0.3674039E+06  0.2722551E+01  0.6153076E-07  0.3096169E+01
  0.2520000E+01  0.1830820E+06  0.2725915E+01  0.3834560E-01  0.2735992E+01  0.4441038E+05 -0.2483980E+01  0.7736763E-01  0.1697366E+00  0.3660619E+06  0.2725917E+01  0.3291405E-07  0.2703256E+01
  0.2540000E+01  0.1820738E+06  0.2729051E+01  0.2479168E-01  0.2162874E+01  0.4096454E+05 -0.2513817E+01  0.5015947E-01 -0.2526493E+01  0.3640465E+06  0.2729054E+01  0.8658796E-07 -0.3285532E+00
  0.2560000E+01  0.1807182E+06  0.2731816E+01  0.5047319E-01 -0.1823355E+01  0.3763974E+05 -0.2547587E+01  0.6548411E-01 -0.2131038E+01  0.3613359E+06  0.2731819E+01  0.3651212E-07  0.9119903E+00
  0.2580000E+01  0.1790085E+06  0.2734188E+01  0.2693949E-01  0.2197680E+01  0.3443325E+05 -0.2586312E+01  0.4843631E-01  0.9992861E+00  0.3579174E+06  0.2734192E+01  0.7957224E-07  0.2847304E+00
  0.2600000E+01  0.1769759E+06  0.2736242E+01  0.9929279E-02  0.1342730E+01  0.3135124E+05 -0.2631209E+01  0.2648495E-01  0.1984019E+01  0.3538532E+06  0.2736247E+01  0.6283495E-07 -0.2090229E+00
  0.2620000E+01  0.1746375E+06  0.2737841E+01  0.2519781E-01 -0.2683700E+01  0.2841801E+05 -0.2683461E+01  0.4795976E-01 -0.2231972E+01  0.3491777E+06  0.2737846E+01  0.2242922E-07 -0.3058451E+01
  0.2640000E+01  0.1719621E+06  0.2738628E+01  0.7756596E-02  0.2348544E+01  0.2565268E+05 -0.2744733E+01  0.1494226E-01  0.3138146E+01  0.3438290E+06  0.2738634E+01  0.1003065E-07  0.3805064E+00
  0.2660000E+01  0.1689292E+06  0.2738223E+01  0.2079039E-01 -0.1151515E+01  0.2307249E+05 -0.2817086E+01  0.5704085E-01 -0.2871170E+01  0.3377645E+06  0.2738230E+01  0.1396114E-06 -0.2287989E+00
  0.2680000E+01  0.1655487E+06  0.2736188E+01  0.2732975E-01  0.1876689E+01  0.2070755E+05 -0.2902919E+01  0.4569940E-01  0.1993275E+01  0.3310055E+06  0.2736195E+01  0.6519258E-07 -0.6435011E+00
  0.2700000E+01  0.1618803E+06  0.2731561E+01  0.1184088E-01  0.7020394E+00  0.1858811E+05 -0.3004905E+01  0.3898221E-01  0.1160302E+01  0.3236705E+06  0.2731569E+01  0.9195131E-07 -0.3019750E+01
  0.2720000E+01  0.1578872E+06  0.2721428E+01  0.8749391E-02 -0.2497634E+01  0.1675520E+05 -0.3125387E+01  0.3656385E-01  0.1091284E+01  0.3156861E+06  0.2721436E+01  0.6146729E-07  0.0000000E+00
  0.2740000E+01  0.1536603E+06  0.2697425E+01  0.2173064E-01  0.2169729E+01  0.1525369E+05  0.3017658E+01  0.6031666E-01  0.1346619E+01  0.3072338E+06  0.2697434E+01  0.6374630E-07  0.2935601E+01
  0.2760000E+01  0.1489883E+06  0.2603724E+01  0.8919213E-02  0.1090890E+01  0.1412792E+05  0.2859154E+01  0.3351119E-01  0.2111187E+01  0.2978916E+06  0.2603735E+01  0.7508562E-07 -0.1243550E+00
  0.2780000E+01  0.1259955E+06 -0.3083709E+01  0.7348371E-02 -0.2670521E+01  0.1340572E+05  0.2687449E+01  0.6880651E-02  0.1929372E+01  0.2519275E+06 -0.3083707E+01  0.2521516E-07 -0.2051995E+01
  0.2799999E+01  0.1368145E+06  0.2869527E+01  0.7819874E-02  0.2873625E+00  0.1308937E+05  0.2511399E+01  0.5476568E-02 -0.2058900E+01  0.2735546E+06  0.2869535E+01  0.1058476E-06 -0.1939865E+01
  0.2819999E+01  0.1325691E+06  0.2828206E+01  0.9758711E-02 -0.6313829E+00  0.1314565E+05  0.2340814E+01  0.2304794E-01  0.1601669E+01  0.2650654E+06  0.2828216E+01  0.1106864E-06  0.1031820E+01
  0.2840000E+01  0.1272853E+06  0.2812372E+01  0.1188301E-01 -0.9840181E+00  0.1350811E+05  0.2184443E+01  0.2232086E-01  0.2663518E+01  0.2545005E+06  0.2812383E+01  0.3876193E-07  0.1290846E+01
  0.2860000E+01  0.1216691E+06  0.2803798E+01  0.1457363E-01 -0.2748414E-02  0.1410309E+05  0.2046258E+01  0.2598240E-01 -0.1885321E+01  0.2432708E+06  0.2803809E+01  0.1391330E-06 -0.3842354E+00
  0.2880000E+01  0.1157896E+06  0.2798169E+01  0.5275044E-02  0.1147019E+01  0.1485091E+05  0.1927367E+01  0.8208037E-02  0.2230657E+01  0.2315146E+06  0.2798180E+01  0.2666902E-07  0.1359703E+01
  0.2900000E+01  0.1097111E+06  0.2793951E+01  0.8982648E-02 -0.4016227E+00  0.1568490E+05  0.1826155E+01  0.1762829E-01  0.6435850E+00  0.2193605E+06  0.2793962E+01  0.1581193E-07 -0.2378359E+00
  0.2920000E+01  0.1034310E+06  0.2790138E+01  0.2253791E-02  0.2809714E+01  0.1655522E+05  0.1740401E+01  0.6082581E-02  0.1473690E+01  0.2068041E+06  0.2790150E+01  0.5391840E-07 -0.1939675E+01
  0.2940000E+01  0.9695716E+05  0.2786506E+01  0.5674552E-02  0.2753808E+01  0.1742518E+05  0.1667546E+01  0.1925450E-01 -0.2596057E+01  0.1938596E+06  0.2786517E+01  0.7699490E-08 -0.2329463E+01
  0.2960000E+01  0.9037881E+05  0.2782693E+01  0.4652494E-03  0.3911645E+00  0.1826143E+05  0.1605086E+01  0.8087771E-02 -0.4498969E+00  0.1807061E+06  0.2782705E+01  0.1043084E-06 -0.1573028E+01
  0.2980000E+01  0.8367965E+05  0.2778217E+01  0.8847231E-03 -0.2773372E+00  0.1904766E+05  0.1551118E+01  0.7668739E-02 -0.3120699E+01  0.1673113E+06  0.2778228E+01  0.5965964E-07  0.1613739E+01
  0.3000000E+01  0.7686064E+05  0.2772947E+01  0.2425576E-02  0.2983667E+01  0.1976384E+05  0.1503667E+01  0.2154673E-02  0.1737546E+01  0.1536768E+06  0.2772959E+01  0.9599853E-08  0.2253113E+01
  0.3020000E+01  0.6997112E+05  0.2766544E+01  0.1754724E-02 -0.1372761E+01  0.2039730E+05  0.1461745E+01  0.9907578E-02 -0.2585044E+01  0.1399012E+06  0.2766555E+01  0.5031082E-07 -0.1598567E+01