VARIABLES="w (rad/s)"
"abs(F   1   1)" "angle(F   1   1)"
"abs(F   1   2)" "angle(F   1   2)"
"abs(F   1   3)" "angle(F   1   3)"
"abs(F   1   4)" "angle(F   1   4)"
"abs(F   1   5)" "angle(F   1   5)"
"abs(F   1   6)" "angle(F   1   6)"
Zone t="Diffraction force - beta =   0.000 deg",I=   420,F=POINT
  0.2000000E-01  0.3487987E+04 -0.1570795E+01  0.8041802E+00  0.3141578E+01  0.7697517E+06 -0.1623505E-04  0.9506105E+00  0.1289298E-04  0.6973990E+04 -0.1570799E+01  0.2182906E-10 -0.1581213E+01
  0.4000000E-01  0.6981063E+04 -0.1570793E+01  0.8478105E+00  0.3141583E+01  0.7691593E+06 -0.6465043E-04  0.6751446E-01  0.4639341E-03  0.1395819E+05 -0.1570793E+01  0.1123668E-07  0.3035198E+01
  0.5999999E-01  0.1050047E+05 -0.1570790E+01  0.4673483E+00 -0.3141538E+01  0.7681680E+06 -0.1469492E-03  0.4566031E+00  0.9398690E-05  0.2099504E+05 -0.1570789E+01  0.7540547E-08  0.2988539E+01
  0.8000000E-01  0.1405051E+05 -0.1570783E+01  0.8225141E+00  0.1297873E-03  0.7668062E+06 -0.2634720E-03  0.1276584E+01  0.2827826E-03  0.2809311E+05 -0.1570783E+01  0.1891753E-08  0.1572719E+01
  0.9999999E-01  0.1758700E+05 -0.1570775E+01  0.3347028E+00 -0.3318563E-03  0.7650698E+06 -0.4157700E-03  0.1254305E+01 -0.5749115E-05  0.3516405E+05 -0.1570776E+01  0.1148453E-07  0.2895845E+01
  0.1200000E+00  0.2118850E+05 -0.1570765E+01  0.1086720E+00 -0.2730895E-02  0.7629606E+06 -0.6061612E-03  0.1197647E+01  0.3141520E+01  0.4236507E+05 -0.1570765E+01  0.1644746E-07  0.8195006E+00
  0.1400000E+00  0.2479440E+05 -0.1570753E+01  0.2699373E+00 -0.3140846E+01  0.7604858E+06 -0.8369868E-03  0.2178774E+00  0.3137415E+01  0.4957485E+05 -0.1570753E+01  0.4424165E-08  0.1557639E+01
  0.1600000E+00  0.2844505E+05 -0.1570738E+01  0.7004781E+00  0.3141065E+01  0.7576362E+06 -0.1112055E-02  0.5064501E+00  0.3140132E+01  0.5687412E+05 -0.1570738E+01  0.3026798E-08  0.1570796E+01
  0.1800000E+00  0.3216796E+05 -0.1570720E+01  0.2057467E+00  0.3140575E+01  0.7544252E+06 -0.1434170E-02  0.3487671E+00  0.1142993E-02  0.6431774E+05 -0.1570720E+01  0.1546860E-09  0.2289604E+01
  0.2000000E+00  0.3593826E+05 -0.1570698E+01  0.4507941E+00  0.3141238E+01  0.7508445E+06 -0.1810213E-02  0.9560184E+00  0.1277735E-02  0.7185625E+05 -0.1570698E+01  0.6915698E-08  0.9407621E+00
  0.2200000E+00  0.3974168E+05 -0.1570673E+01  0.6577875E-02 -0.3137479E+01  0.7468933E+06 -0.2242483E-02  0.8657120E+00 -0.1225951E-02  0.7946087E+05 -0.1570673E+01  0.1132360E-07 -0.1224660E+01
  0.2400000E+00  0.4362843E+05 -0.1570643E+01  0.1321513E+00 -0.1359186E-01  0.7425818E+06 -0.2738729E-02  0.6766338E+00 -0.3141375E+01  0.8723204E+05 -0.1570644E+01  0.2217248E-07 -0.1237838E+01
  0.2600000E+00  0.4761621E+05 -0.1570608E+01  0.7331426E+00 -0.1169096E-02  0.7379024E+06 -0.3311425E-02  0.7229754E+00  0.1099311E-02  0.9520533E+05 -0.1570608E+01  0.2433165E-07  0.1562423E+01
  0.2800000E+00  0.5170081E+05 -0.1570566E+01  0.2590896E+00  0.9252781E-03  0.7328491E+06 -0.3961474E-02  0.1645119E+01  0.3138424E+01  0.1033723E+06 -0.1570566E+01  0.1542008E-07  0.7266424E+00
  0.3000000E+00  0.5587259E+05 -0.1570517E+01  0.2495619E+00 -0.3894250E-02  0.7274490E+06 -0.4697645E-02  0.1078937E+01  0.3195090E-02  0.1117134E+06 -0.1570517E+01  0.1362172E-07  0.1557976E+01
  0.3200000E+00  0.6013047E+05 -0.1570459E+01  0.1351171E+00 -0.3124911E+01  0.7216800E+06 -0.5543501E-02  0.7444212E+00  0.3788847E-02  0.1202269E+06 -0.1570459E+01  0.1432334E-07 -0.1595182E+01
  0.3400000E+00  0.6449559E+05 -0.1570391E+01  0.4457352E+00  0.3137578E+01  0.7155438E+06 -0.6511614E-02  0.1104203E+00 -0.2320693E-01  0.1289546E+06 -0.1570391E+01  0.2903372E-07  0.1709574E+01
  0.3600000E+00  0.6902027E+05 -0.1570309E+01  0.1828846E+00  0.1597240E-01  0.7090384E+06 -0.7603815E-02  0.5104604E-01  0.1178706E+00  0.1380014E+06 -0.1570309E+01  0.1154333E-07  0.2299114E+01
  0.3800000E+00  0.7370876E+05 -0.1570214E+01  0.2479365E+00  0.3129654E+01  0.7022064E+06 -0.8831681E-02  0.6272237E+00  0.5863733E-02  0.1473755E+06 -0.1570214E+01  0.1177407E-07  0.8063741E+00
  0.4000000E+00  0.7856908E+05 -0.1570099E+01  0.5729099E+00  0.3140195E+01  0.6950274E+06 -0.1024157E-01  0.1610756E+00  0.5535760E-03  0.1570932E+06 -0.1570099E+01  0.2686749E-07 -0.2018941E+01
  0.4200000E+00  0.8359778E+05 -0.1569962E+01  0.3775678E+00 -0.5149549E-03  0.6874852E+06 -0.1186472E-01  0.2490104E+00 -0.3113887E+01  0.1671476E+06 -0.1569962E+01  0.4982630E-07 -0.1787438E+01
  0.4400000E+00  0.8879675E+05 -0.1569798E+01  0.2018681E+00  0.2455850E-01  0.6795851E+06 -0.1370419E-01  0.8614302E+00  0.4584993E-02  0.1775425E+06 -0.1569798E+01  0.5275142E-07 -0.1641474E+01
  0.4600000E+00  0.9415957E+05 -0.1569606E+01  0.5598611E-01  0.3084378E+01  0.6713912E+06 -0.1573560E-01  0.8688607E+00 -0.3138198E+01  0.1882652E+06 -0.1569606E+01  0.4259163E-07 -0.1425421E+01
  0.4800000E+00  0.9973166E+05 -0.1569377E+01  0.4911304E-01 -0.7398188E-01  0.6629229E+06 -0.1803890E-01  0.9115154E+00  0.3128317E+01  0.1994061E+06 -0.1569377E+01  0.1291319E-07 -0.2018317E+01
  0.5000000E+00  0.1055715E+06 -0.1569100E+01  0.3855932E+00  0.3028358E-01  0.6541459E+06 -0.2068480E-01  0.1663043E+00 -0.7664820E-01  0.2110823E+06 -0.1569100E+01  0.5927918E-07  0.1639585E+01
  0.5200000E+00  0.1116848E+06 -0.1568771E+01  0.1673488E+00  0.3126898E+01  0.6450614E+06 -0.2369893E-01  0.8040486E-01 -0.2903415E+01  0.2233052E+06 -0.1568771E+01  0.9208592E-07  0.1520206E+01
  0.5399999E+00  0.1180817E+06 -0.1568377E+01  0.2814792E+00  0.3091646E+01  0.6357092E+06 -0.2707896E-01  0.1552844E+00 -0.1871776E+00  0.2360950E+06 -0.1568377E+01  0.4261055E-07 -0.1559868E+01
  0.5599999E+00  0.1247475E+06 -0.1567921E+01  0.1514056E-01 -0.1933314E+00  0.6261901E+06 -0.3072422E-01  0.6006355E+00  0.1833948E-03  0.2494232E+06 -0.1567921E+01  0.1877141E-07 -0.1446441E+01
  0.5799999E+00  0.1316784E+06 -0.1567380E+01  0.5606815E-01  0.3047089E+01  0.6164850E+06 -0.3479860E-01  0.5713069E+00  0.3125423E+01  0.2632806E+06 -0.1567380E+01  0.4331213E-07 -0.1586924E+01
  0.5999999E+00  0.1388538E+06 -0.1566738E+01  0.1505293E+00  0.3001090E-01  0.6066400E+06 -0.3938648E-01  0.1118963E+01  0.2431593E-01  0.2776271E+06 -0.1566738E+01  0.3259629E-08  0.1570792E+01
  0.6199999E+00  0.1462506E+06 -0.1565980E+01  0.3137460E-01 -0.3348450E+00  0.5965750E+06 -0.4452213E-01  0.4527120E+00  0.2472233E-01  0.2924165E+06 -0.1565980E+01  0.4538527E-07  0.1668423E+01
  0.6399999E+00  0.1539416E+06 -0.1565094E+01  0.2030229E+00  0.5876448E-02  0.5864104E+06 -0.5015818E-01  0.2387197E+00 -0.1255978E+00  0.3077933E+06 -0.1565094E+01  0.2275674E-07  0.1226395E+01
  0.6599999E+00  0.1619550E+06 -0.1564095E+01  0.5468616E-01 -0.9163356E+00  0.5761892E+06 -0.5602622E-01  0.5504689E+00 -0.4228590E-01  0.3238157E+06 -0.1564095E+01  0.8672590E-07 -0.1621827E+01
  0.6799999E+00  0.1702845E+06 -0.1562947E+01  0.1286380E+00 -0.5849384E-02  0.5659529E+06 -0.6238125E-01  0.2354867E+00 -0.2938855E+01  0.3404696E+06 -0.1562947E+01  0.2668934E-07  0.1465918E+01
  0.6999999E+00  0.1788954E+06 -0.1561629E+01  0.4052708E+00  0.8199733E-02  0.5556785E+06 -0.6929386E-01  0.7395781E+00 -0.3134009E+01  0.3576862E+06 -0.1561629E+01  0.6262928E-07  0.1720054E+01
  0.7199998E+00  0.1877349E+06 -0.1560123E+01  0.1971079E+00  0.1959527E-02  0.5454700E+06 -0.7681714E-01  0.9055343E+00  0.9563915E-02  0.3753595E+06 -0.1560123E+01  0.5361227E-07 -0.1618585E+01
  0.7399999E+00  0.1967850E+06 -0.1558407E+01  0.3654602E+00  0.3130625E-01  0.5351902E+06 -0.8497187E-01  0.5614200E-01 -0.4986015E-01  0.3934547E+06 -0.1558407E+01  0.9092327E-07  0.1622033E+01
  0.7599999E+00  0.2059777E+06 -0.1556521E+01  0.6697531E+00  0.3139840E+01  0.5249202E+06 -0.9325898E-01  0.5495759E+00  0.6467079E-01  0.4118345E+06 -0.1556521E+01  0.1357121E-06  0.1515869E+01
  0.7799999E+00  0.2152782E+06 -0.1554432E+01  0.4239514E-01 -0.2899443E+00  0.5147008E+06 -0.1019249E+00  0.8075059E+00 -0.3119891E+01  0.4304290E+06 -0.1554432E+01  0.1842160E-07  0.1289024E+01
  0.8000000E+00  0.2246628E+06 -0.1552114E+01  0.1006999E+00  0.3061824E+01  0.5045249E+06 -0.1110799E+00  0.9865953E+00  0.6083956E-01  0.4491928E+06 -0.1552114E+01  0.2002538E-06  0.1556844E+01
  0.8199999E+00  0.2342082E+06 -0.1549561E+01  0.4817915E-01  0.2247280E+01  0.4944736E+06 -0.1207764E+00  0.7712983E+00 -0.3091826E+01  0.4682775E+06 -0.1549561E+01  0.4415932E-07 -0.1815775E+01
  0.8399999E+00  0.2439051E+06 -0.1546756E+01  0.3096314E+00 -0.3097278E+01  0.4844932E+06 -0.1310700E+00  0.2077281E+01 -0.4576228E-01  0.4876656E+06 -0.1546756E+01  0.8988106E-07 -0.1747869E+01
  0.8599999E+00  0.2537207E+06 -0.1543697E+01  0.5289659E+00  0.3104663E+01  0.4745871E+06 -0.1419135E+00  0.6180147E+00  0.1077736E+00  0.5072909E+06 -0.1543697E+01  0.1184099E-06  0.1618005E+01
  0.8799999E+00  0.2635919E+06 -0.1540428E+01  0.2120085E+00  0.2975809E+01  0.4646753E+06 -0.1529075E+00  0.1764513E+01 -0.2606246E-01  0.5270278E+06 -0.1540428E+01  0.9599852E-08  0.8884797E+00
  0.8999999E+00  0.2734848E+06 -0.1536912E+01  0.1841355E+00 -0.6819037E-01  0.4547801E+06 -0.1643051E+00  0.3189372E+00 -0.1774905E+00  0.5468056E+06 -0.1536912E+01  0.1240898E-06 -0.1630875E+01
  0.9199999E+00  0.2833453E+06 -0.1533137E+01  0.5104098E+00 -0.7745364E-01  0.4450542E+06 -0.1761695E+00  0.1701026E+00  0.2820054E+00  0.5665217E+06 -0.1533137E+01  0.9849590E-07 -0.1341871E+01
  0.9399999E+00  0.2931143E+06 -0.1529097E+01  0.8496415E-01  0.1791217E+00  0.4354242E+06 -0.1885192E+00  0.7519466E+00  0.3093383E+01  0.5860534E+06 -0.1529097E+01  0.1293836E-07 -0.1042720E+01
  0.9599999E+00  0.3027316E+06 -0.1524788E+01  0.4057833E+00  0.1768378E+00  0.4259861E+06 -0.2013938E+00  0.6214285E+00  0.1509683E+00  0.6052818E+06 -0.1524788E+01  0.1869361E-06 -0.1655593E+01
  0.9799999E+00  0.3121753E+06 -0.1520212E+01  0.5331649E+00 -0.1055631E+00  0.4166623E+06 -0.2148142E+00  0.1048089E+00 -0.4948128E+00  0.6241634E+06 -0.1520212E+01  0.1164153E-07  0.1287003E+01
  0.9999999E+00  0.3213887E+06 -0.1515387E+01  0.6599379E+00 -0.1949728E+00  0.4073798E+06 -0.2286643E+00  0.4869803E+00  0.2963469E+01  0.6425847E+06 -0.1515387E+01  0.7655562E-07  0.1399648E+01
  0.1020000E+01  0.3304189E+06 -0.1510373E+01  0.1909041E+00 -0.1269534E+00  0.3981549E+06 -0.2428475E+00  0.1135431E+01 -0.6470576E-01  0.6606381E+06 -0.1510373E+01  0.7468172E-07  0.1502155E+01
  0.1040000E+01  0.3392756E+06 -0.1505180E+01  0.4875892E+00  0.1884533E+00  0.3890078E+06 -0.2574949E+00  0.7423597E+00 -0.2965616E+01  0.6783468E+06 -0.1505180E+01  0.2237738E-06 -0.1618676E+01
  0.1060000E+01  0.3479015E+06 -0.1499828E+01  0.2709057E+00  0.3008050E+01  0.3800698E+06 -0.2726179E+00  0.1305288E+00  0.2098883E+01  0.6955936E+06 -0.1499828E+01  0.5586576E-07  0.1937372E+01
  0.1080000E+01  0.3562342E+06 -0.1494330E+01  0.2837042E+00 -0.3032872E+01  0.3711626E+06 -0.2882264E+00  0.4973928E-01 -0.1418024E+01  0.7122529E+06 -0.1494330E+01  0.6350091E-07 -0.1497399E+01
  0.1100000E+01  0.3642178E+06 -0.1488715E+01  0.7385053E+00  0.3118164E+01  0.3625010E+06 -0.3043208E+00  0.3430407E+00  0.2886442E+01  0.7282148E+06 -0.1488715E+01  0.9707665E-07 -0.1503590E+01
  0.1120000E+01  0.3718064E+06 -0.1483012E+01  0.1328609E+00  0.3999788E+00  0.3539572E+06 -0.3209122E+00  0.1128958E+00 -0.1653828E+01  0.7433868E+06 -0.1483012E+01  0.1043591E-06 -0.1602037E+01
  0.1140000E+01  0.3789600E+06 -0.1477257E+01  0.2652628E+00  0.3124389E+01  0.3457229E+06 -0.3379946E+00  0.5906911E+00 -0.2994479E+01  0.7576888E+06 -0.1477257E+01  0.3019223E-06  0.1536858E+01
  0.1160000E+01  0.3856397E+06 -0.1471505E+01  0.1336349E+00 -0.2306711E+01  0.3373993E+06 -0.3555117E+00  0.7103528E+00  0.3000555E+01  0.7710448E+06 -0.1471505E+01  0.3598571E-07 -0.1388627E+01
  0.1180000E+01  0.3918440E+06 -0.1465831E+01  0.3863032E+00  0.1855604E+00  0.3292160E+06 -0.3734676E+00  0.7403554E+00  0.3128863E+01  0.7834487E+06 -0.1465831E+01  0.2924590E-06  0.1558058E+01
  0.1200000E+01  0.3975576E+06 -0.1460290E+01  0.1172903E+01  0.3028764E+01  0.3212748E+06 -0.3918906E+00  0.3310956E+00  0.8604729E+00  0.7948726E+06 -0.1460290E+01  0.4596857E-07 -0.1805948E+01
  0.1220000E+01  0.4027267E+06 -0.1454935E+01  0.5099137E+00  0.3000128E+01  0.3133515E+06 -0.4108205E+00  0.7963801E+00 -0.3092868E+01  0.8052091E+06 -0.1454936E+01  0.2894036E-06 -0.1501552E+01
  0.1240000E+01  0.4073479E+06 -0.1449817E+01  0.2059188E+00  0.4704163E+00  0.3055966E+06 -0.4301873E+00  0.1139145E+01  0.8194452E-02  0.8144451E+06 -0.1449816E+01  0.4667772E-07  0.1071449E+01
  0.1260000E+01  0.4113778E+06 -0.1444987E+01  0.1733307E+00 -0.2956650E+01  0.2980168E+06 -0.4500179E+00  0.6672306E+00  0.3102740E+01  0.8225022E+06 -0.1444987E+01  0.1739063E-06 -0.1482319E+01
  0.1280000E+01  0.4147848E+06 -0.1440503E+01  0.2552513E+00  0.2169043E-01  0.2904785E+06 -0.4703433E+00  0.2797297E+00  0.3446699E+00  0.8293147E+06 -0.1440503E+01  0.2635433E-06  0.1487655E+01
  0.1300000E+01  0.4175965E+06 -0.1436444E+01  0.4851002E-01 -0.2184273E+01  0.2832215E+06 -0.4911218E+00  0.1650667E+00  0.2560044E+00  0.8349361E+06 -0.1436443E+01  0.1940750E-07  0.1042723E+01
  0.1320000E+01  0.4198044E+06 -0.1432886E+01  0.4325629E+00 -0.2951428E-01  0.2760932E+06 -0.5123920E+00  0.8922818E+00 -0.3078830E+01  0.8393506E+06 -0.1432885E+01  0.2115312E-06 -0.1357858E+01
  0.1340000E+01  0.4214133E+06 -0.1429888E+01  0.3767907E+00 -0.2725580E+01  0.2690843E+06 -0.5341278E+00  0.2136457E+00 -0.1560534E+01  0.8425657E+06 -0.1429887E+01  0.1324346E-06 -0.9301081E+00
  0.1360000E+01  0.4224305E+06 -0.1427508E+01  0.2735977E+00  0.2942634E+01  0.2622432E+06 -0.5563159E+00  0.7746407E-01  0.3080615E+01  0.8446003E+06 -0.1427508E+01  0.1106443E-06  0.2490516E+01
  0.1380000E+01  0.4228664E+06 -0.1425789E+01  0.4587250E+00  0.1169924E+00  0.2555263E+06 -0.5789855E+00  0.8346543E+00 -0.9286900E-01  0.8454713E+06 -0.1425789E+01  0.1270368E-06 -0.1647849E+01
  0.1400000E+01  0.4227262E+06 -0.1424789E+01  0.1138113E+00 -0.4835494E+00  0.2489750E+06 -0.6021240E+00  0.5552485E-01  0.2818310E+01  0.8451905E+06 -0.1424789E+01  0.4889444E-07 -0.9272951E+00
  0.1420000E+01  0.4220385E+06 -0.1424563E+01  0.3137081E+00  0.4895318E+00  0.2425540E+06 -0.6257220E+00  0.1557797E+00 -0.2043397E+01  0.8438155E+06 -0.1424562E+01  0.5926169E-07 -0.2614650E+01
  0.1440000E+01  0.4208214E+06 -0.1425164E+01  0.5346295E+00 -0.2986541E+01  0.2362794E+06 -0.6497838E+00  0.4304500E+00  0.2903067E+00  0.8413835E+06 -0.1425164E+01  0.1401950E-06  0.1387080E+01
  0.1460000E+01  0.4191078E+06 -0.1426637E+01  0.2037829E+00  0.2214547E+00  0.2301199E+06 -0.6743228E+00  0.3808936E+00  0.4325288E+00  0.8379543E+06 -0.1426637E+01  0.4656846E-07 -0.1560797E+01
  0.1480000E+01  0.4169179E+06 -0.1429016E+01  0.1121746E+00 -0.2792017E+01  0.2240888E+06 -0.6993283E+00  0.2033252E+00 -0.3019621E+01  0.8335769E+06 -0.1429015E+01  0.3711340E-06 -0.1520587E+01
  0.1500000E+01  0.4142937E+06 -0.1432333E+01  0.2045462E+00  0.2307465E+00  0.2182314E+06 -0.7248077E+00  0.3027057E+00  0.1422326E+01  0.8283283E+06 -0.1432332E+01  0.1499516E-06  0.1682825E+01
  0.1520000E+01  0.4112588E+06 -0.1436609E+01  0.1329736E+00 -0.2886121E+01  0.2124647E+06 -0.7507573E+00  0.1049782E+01  0.2986861E+01  0.8222623E+06 -0.1436609E+01  0.6922553E-07  0.1476482E+01
  0.1540000E+01  0.4078512E+06 -0.1441881E+01  0.1176749E+00 -0.2579799E+01  0.2068938E+06 -0.7771974E+00  0.9946738E+00  0.3084927E+01  0.8154482E+06 -0.1441881E+01  0.2785651E-06  0.1426535E+01
  0.1560000E+01  0.4040989E+06 -0.1448163E+01  0.2567869E+00 -0.2994592E+01  0.2013377E+06 -0.8041263E+00  0.5376676E+00 -0.2644612E+01  0.8079454E+06 -0.1448162E+01  0.1252170E-06 -0.1652702E+01
  0.1580000E+01  0.4000440E+06 -0.1455475E+01  0.8811823E-01  0.2601599E+01  0.1960056E+06 -0.8314966E+00  0.3453305E+00  0.1255528E+00  0.7998373E+06 -0.1455474E+01  0.6615014E-07 -0.9554567E+00
  0.1600000E+01  0.3957099E+06 -0.1463822E+01  0.1100326E+00 -0.1847873E+01  0.1908373E+06 -0.8593865E+00  0.5863366E+00  0.2485247E+01  0.7911720E+06 -0.1463822E+01  0.1059950E-06  0.9413539E+00
  0.1620000E+01  0.3911288E+06 -0.1473219E+01  0.1076251E+00  0.1122874E+01  0.1856062E+06 -0.8877332E+00  0.3198956E+00 -0.1049748E+01  0.7820128E+06 -0.1473218E+01  0.2355067E-06  0.1653937E+01
  0.1640000E+01  0.3863328E+06 -0.1483657E+01  0.3905467E-01 -0.1628763E+01  0.1806690E+06 -0.9165612E+00  0.5575850E+00 -0.2819529E+00  0.7724234E+06 -0.1483657E+01  0.2105799E-06 -0.1539832E+01
  0.1660000E+01  0.3813457E+06 -0.1495145E+01  0.2463782E+00  0.3024361E+01  0.1758202E+06 -0.9458629E+00  0.4660910E+00  0.2291846E-01  0.7624530E+06 -0.1495145E+01  0.1332483E-06  0.1693418E+01
  0.1680000E+01  0.3762004E+06 -0.1507677E+01  0.1947170E+00 -0.2905439E+01  0.1710153E+06 -0.9756224E+00  0.2124810E+00 -0.2836960E+01  0.7521652E+06 -0.1507677E+01  0.1561411E-06  0.1711428E+01
  0.1700000E+01  0.3709166E+06 -0.1521256E+01  0.9558537E-01  0.1178137E+00  0.1663745E+06 -0.1005914E+01  0.1438688E+00  0.3359317E+00  0.7415984E+06 -0.1521255E+01  0.1285638E-06 -0.1596153E+01
  0.1720000E+01  0.3655210E+06 -0.1535870E+01  0.2655774E+00 -0.3899918E+00  0.1617538E+06 -0.1036682E+01  0.1006021E+01 -0.3128311E+01  0.7308118E+06 -0.1535870E+01  0.7119632E-07  0.1462667E+01
  0.1740000E+01  0.3600402E+06 -0.1551506E+01  0.4243258E+00  0.3069886E+01  0.1574621E+06 -0.1067947E+01  0.5608612E+00 -0.3085703E+01  0.7198528E+06 -0.1551506E+01  0.2291503E-06 -0.1550982E+01
  0.1760000E+01  0.3544947E+06 -0.1568153E+01  0.2295894E+00  0.2792583E+01  0.1531470E+06 -0.1099722E+01  0.3665345E+00  0.3061338E+01  0.7087648E+06 -0.1568153E+01  0.1415656E-06  0.1562778E+01
  0.1780000E+01  0.3488949E+06 -0.1585806E+01  0.2565968E+00 -0.7948563E-01  0.1489970E+06 -0.1132010E+01  0.4175258E+00 -0.7067091E-02  0.6975698E+06 -0.1585806E+01  0.1807308E-06  0.1595276E+01
  0.1800000E+01  0.3432639E+06 -0.1604450E+01  0.2793644E+00 -0.2499613E+01  0.1447815E+06 -0.1164845E+01  0.4332767E+00 -0.5483661E+00  0.6863102E+06 -0.1604451E+01  0.1192538E-06 -0.1543460E+01
  0.1820000E+01  0.3376144E+06 -0.1624071E+01  0.2591484E+00  0.3078560E+01  0.1408287E+06 -0.1198169E+01  0.9371142E-01  0.2221638E+01  0.6750164E+06 -0.1624071E+01  0.2459089E-06 -0.1552806E+01
  0.1840000E+01  0.3319643E+06 -0.1644646E+01  0.8731444E-01 -0.1062278E+01  0.1368828E+06 -0.1232028E+01  0.2348251E+00  0.1289321E+01  0.6637204E+06 -0.1644647E+01  0.1317913E-07 -0.2129397E+01
  0.1860000E+01  0.3263222E+06 -0.1666169E+01  0.1199233E+00 -0.9577401E+00  0.1330294E+06 -0.1266417E+01  0.1226582E+00 -0.2993623E+01  0.6524391E+06 -0.1666170E+01  0.2946293E-06 -0.1523363E+01
  0.1880000E+01  0.3207006E+06 -0.1688621E+01  0.4859769E+00  0.1236271E+00  0.1294088E+06 -0.1301348E+01  0.2513547E+00 -0.3499366E+00  0.6411965E+06 -0.1688622E+01  0.2311557E-06  0.1611097E+01
  0.1900000E+01  0.3151072E+06 -0.1711984E+01  0.8762684E-01  0.2669379E+01  0.1258218E+06 -0.1336800E+01  0.5083461E+00  0.3029245E+01  0.6300158E+06 -0.1711986E+01  0.2471517E-06  0.1672715E+01
  0.1920000E+01  0.3095475E+06 -0.1736246E+01  0.1140612E+00  0.3058891E+01  0.1221778E+06 -0.1372821E+01  0.4475611E+00  0.3520275E+00  0.6189003E+06 -0.1736248E+01  0.1769611E-06  0.1581322E+01
  0.1940000E+01  0.3040414E+06 -0.1761387E+01  0.1941736E+00  0.3540762E+00  0.1188566E+06 -0.1409477E+01  0.3534373E+00  0.1053794E+00  0.6078906E+06 -0.1761390E+01  0.7258343E-07  0.5844439E+00
  0.1960000E+01  0.2985910E+06 -0.1787402E+01  0.2110337E+00 -0.3960813E+00  0.1154792E+06 -0.1446752E+01  0.2740984E+00 -0.2069246E+01  0.5969932E+06 -0.1787405E+01  0.8128691E-07 -0.2827088E+01
  0.1980000E+01  0.2931963E+06 -0.1814270E+01  0.5883436E-01  0.1113927E+01  0.1122731E+06 -0.1484655E+01  0.3271385E+00 -0.1753724E+00  0.5862063E+06 -0.1814274E+01  0.2014587E-06 -0.1880851E+01
  0.2000000E+01  0.2878642E+06 -0.1841968E+01  0.5918813E-01 -0.7500943E+00  0.1090969E+06 -0.1522787E+01  0.1131805E+00 -0.2287096E+01  0.5755461E+06 -0.1841972E+01  0.9532759E-07  0.1313970E+01
  0.2020000E+01  0.2826006E+06 -0.1870474E+01  0.1192484E+00  0.7626461E+00  0.1059631E+06 -0.1562101E+01  0.3767515E+00 -0.2598314E+00  0.5650214E+06 -0.1870480E+01  0.4116825E-07  0.2227871E+01
  0.2040000E+01  0.2774089E+06 -0.1899789E+01  0.1964482E+00 -0.6034441E+00  0.1028986E+06 -0.1602259E+01  0.1741088E+00 -0.2964781E+01  0.5546421E+06 -0.1899795E+01  0.2148047E-06 -0.1280585E+01
  0.2060000E+01  0.2722915E+06 -0.1929908E+01  0.6697408E-01 -0.1058436E+01  0.9989763E+05 -0.1643283E+01  0.1418154E+00  0.3110856E+01  0.5444106E+06 -0.1929915E+01  0.9583585E-07 -0.2169580E+01
  0.2080000E+01  0.2672583E+06 -0.1960794E+01  0.2343236E+00 -0.4004531E+00  0.9696496E+05 -0.1685309E+01  0.2063563E+00  0.2988939E+01  0.5343465E+06 -0.1960803E+01  0.1068588E-06  0.2100752E+01
  0.2100000E+01  0.2622967E+06 -0.1992452E+01  0.7565486E-01 -0.1085455E+00  0.9404646E+05 -0.1728711E+01  0.4712454E-01  0.2506745E+01  0.5244269E+06 -0.1992462E+01  0.3270255E-07 -0.1919568E+01
  0.2120000E+01  0.2574132E+06 -0.2024863E+01  0.4138387E-01 -0.8962353E+00  0.9112872E+05 -0.1773881E+01  0.2484425E+00 -0.2720958E+01  0.5146633E+06 -0.2024874E+01  0.3665438E-07 -0.2045807E+01
  0.2140000E+01  0.2526113E+06 -0.2058019E+01  0.5988323E-01 -0.1372127E+01  0.8819163E+05 -0.1821273E+01  0.2361750E+00  0.3052627E+01  0.5050632E+06 -0.2058031E+01  0.2638558E-06 -0.1457606E+01
  0.2160000E+01  0.2478892E+06 -0.2091900E+01  0.5857916E-01  0.4391238E+00  0.8513798E+05 -0.1872290E+01  0.2210810E+00 -0.9545218E+00  0.4956222E+06 -0.2091913E+01  0.1351541E-06 -0.1051650E+01
  0.2180000E+01  0.2432444E+06 -0.2126493E+01  0.1686731E+00  0.3041429E+01  0.8176315E+05 -0.1930531E+01  0.1518493E+00  0.1943465E+00  0.4863366E+06 -0.2126506E+01  0.2054875E-06  0.9739944E+00
  0.2200000E+01  0.2386875E+06 -0.2161802E+01  0.2972894E-01 -0.3367669E+00  0.7755165E+05 -0.2005301E+01  0.7796998E-01 -0.1464674E+01  0.4772245E+06 -0.2161820E+01  0.8253120E-07  0.2284319E+01
  0.2220000E+01  0.2342057E+06 -0.2197840E+01  0.4298855E-01 -0.1025384E+00  0.6958403E+05 -0.2138782E+01  0.8068556E-01  0.2319537E+01  0.4682661E+06 -0.2197855E+01  0.1426604E-06  0.2880780E+01
  0.2240000E+01  0.2298166E+06 -0.2234548E+01  0.4860690E-01  0.3009796E+01  0.1739587E+05  0.4949172E+00  0.1271564E+00  0.3116765E+01  0.4594893E+06 -0.2234567E+01  0.9621514E-07  0.1648310E+01
  0.2260000E+01  0.2255239E+06 -0.2271933E+01  0.9649390E-01  0.8694352E+00  0.8708799E+05 -0.1805593E+01  0.2907397E-01  0.2030427E+00  0.4509082E+06 -0.2271952E+01  0.1341540E-06 -0.3116099E+01
  0.2280000E+01  0.2213114E+06 -0.2310006E+01  0.5048029E-01  0.2601057E+01  0.7990147E+05 -0.1967411E+01  0.1952803E+00 -0.9650553E+00  0.4424857E+06 -0.2310027E+01  0.2030588E-06  0.1783370E+01
  0.2300000E+01  0.2171672E+06 -0.2348780E+01  0.1033196E+00 -0.8928419E+00  0.7613150E+05 -0.2049636E+01  0.1638164E+00  0.2523809E+01  0.4342012E+06 -0.2348801E+01  0.4327284E-07  0.6844045E+00
  0.2320000E+01  0.2130940E+06 -0.2388206E+01  0.5486311E-01 -0.1720219E+01  0.7329673E+05 -0.2112681E+01  0.1272108E+00 -0.2786574E+01  0.4260587E+06 -0.2388227E+01  0.1071570E-06 -0.3994710E+00
  0.2340000E+01  0.2091023E+06 -0.2428264E+01  0.1027035E+00  0.2876621E+01  0.7084582E+05 -0.2168622E+01  0.3230378E-01 -0.1748509E+01  0.4180781E+06 -0.2428286E+01  0.1051985E-06 -0.1131896E+01
  0.2360000E+01  0.2051851E+06 -0.2468999E+01  0.4661421E-01  0.1215441E+01  0.6864232E+05 -0.2221653E+01  0.6630250E-01 -0.1385805E+01  0.4102467E+06 -0.2469021E+01  0.7935535E-07 -0.7895477E+00
  0.2380000E+01  0.2013682E+06 -0.2510400E+01  0.4812119E-01  0.2697857E+01  0.6659431E+05 -0.2272959E+01  0.8293534E-01  0.2322525E+01  0.4026155E+06 -0.2510425E+01  0.2988606E-06 -0.3449106E+00
  0.2400000E+01  0.1976324E+06 -0.2552421E+01  0.1638823E-01  0.2497370E+01  0.6464312E+05 -0.2323327E+01  0.3639121E-01  0.2232260E+01  0.3951470E+06 -0.2552447E+01  0.1797935E-06 -0.2367183E+01
  0.2420000E+01  0.1939635E+06 -0.2595121E+01  0.3391476E-01  0.7038094E+00  0.6280725E+05 -0.2373203E+01  0.3642641E-01 -0.9050344E+00  0.3878128E+06 -0.2595146E+01  0.1117054E-06  0.2884481E+01
  0.2440000E+01  0.1903573E+06 -0.2638506E+01  0.1370070E-01 -0.2108835E+01  0.6106580E+05 -0.2422855E+01  0.4955867E-01  0.2413382E+00  0.3806026E+06 -0.2638531E+01  0.8237632E-07 -0.5370265E+00
  0.2460000E+01  0.1868317E+06 -0.2682497E+01  0.6190763E-01  0.1667690E+01  0.5937401E+05 -0.2472541E+01  0.9227777E-01  0.1052585E+01  0.3735547E+06 -0.2682520E+01  0.1279984E-06  0.2632374E+01
  0.2480000E+01  0.1833707E+06 -0.2727149E+01  0.1489989E-01 -0.1595377E+01  0.5774783E+05 -0.2522207E+01  0.9277333E-01  0.6203888E+00  0.3666349E+06 -0.2727174E+01  0.3981250E-06 -0.2981251E+01
  0.2500000E+01  0.1799754E+06 -0.2772492E+01  0.6232082E-01 -0.1216684E+01  0.5618565E+05 -0.2572029E+01  0.6768560E-01  0.2479378E+01  0.3598472E+06 -0.2772519E+01  0.1011257E-06  0.2156245E+01
  0.2520000E+01  0.1766295E+06 -0.2818515E+01  0.3755639E-01  0.2724334E+01  0.5467260E+05 -0.2622031E+01  0.7743024E-01  0.1738231E+00  0.3531581E+06 -0.2818539E+01  0.2421438E-07  0.3141593E+01
  0.2540000E+01  0.1733768E+06 -0.2865245E+01  0.2469432E-01  0.2125041E+01  0.5319818E+05 -0.2672275E+01  0.4579241E-01 -0.2454977E+01  0.3466554E+06 -0.2865270E+01  0.8196169E-07  0.1136312E-01
  0.2560000E+01  0.1701937E+06 -0.2912744E+01  0.4983906E-01 -0.1792842E+01  0.5177860E+05 -0.2722584E+01  0.6870319E-01 -0.2198217E+01  0.3402913E+06 -0.2912769E+01  0.2449928E-07  0.1526493E+00
  0.2580000E+01  0.1670740E+06 -0.2961003E+01  0.2760039E-01  0.2245964E+01  0.5039914E+05 -0.2773136E+01  0.4356479E-01  0.1258114E+01  0.3340542E+06 -0.2961025E+01  0.7265660E-07  0.1922835E-01
  0.2600000E+01  0.1640520E+06 -0.3010042E+01  0.9564969E-02  0.1385280E+01  0.4905226E+05 -0.2824056E+01  0.2535040E-01  0.1663776E+01  0.3280123E+06 -0.3010063E+01  0.7582132E-07 -0.4856221E+00
  0.2620000E+01  0.1611315E+06 -0.3059999E+01  0.3639153E-01 -0.2829165E+01  0.4774439E+05 -0.2875207E+01  0.5595941E-01 -0.2398372E+01  0.3221735E+06 -0.3060019E+01  0.1666001E-07 -0.2677944E+01
  0.2640000E+01  0.1582619E+06 -0.3111095E+01  0.7969832E-02  0.6629112E+00  0.4647493E+05 -0.2926591E+01  0.3872345E-01  0.3136716E+01  0.3164369E+06 -0.3111115E+01  0.1252967E-07  0.7328150E+00
  0.2660000E+01  0.1554093E+06  0.3119534E+01  0.2878462E-01 -0.2423270E+01  0.4523783E+05 -0.2978250E+01  0.3793824E-01 -0.2736278E+01  0.3107333E+06  0.3119515E+01  0.1455279E-06  0.5762841E-01
  0.2680000E+01  0.1525767E+06  0.3065036E+01  0.2783516E-01  0.1188292E+01  0.4403456E+05 -0.3030187E+01  0.4309408E-01  0.1760119E+01  0.3050700E+06  0.3065017E+01  0.7187494E-07 -0.5448639E+00
  0.2700000E+01  0.1498066E+06  0.3007499E+01  0.1860252E-01  0.4658028E+00  0.4286069E+05 -0.3082463E+01  0.5639698E-01  0.6604795E+00  0.2995315E+06  0.3007482E+01  0.1053671E-06  0.2999696E+01
  0.2720000E+01  0.1470145E+06  0.2944019E+01  0.1507449E-01 -0.2794292E+01  0.4171572E+05 -0.3135084E+01  0.3352150E-01  0.1257052E+01  0.2939488E+06  0.2944002E+01  0.7693423E-07 -0.1213520E+00
  0.2740000E+01  0.1441981E+06  0.2865840E+01  0.3271107E-01  0.2562193E+01  0.4059824E+05  0.3095130E+01  0.6071777E-01  0.1330244E+01  0.2883172E+06  0.2865826E+01  0.8005584E-07  0.2631104E+01
  0.2760000E+01  0.1405414E+06  0.2715092E+01  0.9528173E-02  0.2113396E+01  0.3950841E+05  0.3041766E+01  0.2874410E-01  0.1591368E+01  0.2810058E+06  0.2715081E+01  0.7727171E-07 -0.2683662E+00
  0.2780000E+01  0.1269432E+06 -0.3006377E+01  0.1319138E-01 -0.2503629E+00  0.3844355E+05  0.2988012E+01  0.2510582E-01  0.2887788E+01  0.2538214E+06 -0.3006405E+01  0.1224193E-07 -0.2277102E+01
  0.2799999E+01  0.1363691E+06  0.2881492E+01  0.1494509E-01  0.2987967E+01  0.3740365E+05  0.2933877E+01  0.6774993E-01 -0.6541737E-01  0.2726659E+06  0.2881474E+01  0.1164153E-06 -0.1854590E+01
  0.2819999E+01  0.1346040E+06  0.2784489E+01  0.4790883E-01 -0.3017217E+01  0.3638636E+05  0.2879231E+01  0.6414276E-01  0.3755918E+00  0.2691365E+06  0.2784475E+01  0.1799575E-06  0.1260502E+01
  0.2840000E+01  0.1323894E+06  0.2713625E+01  0.5605398E-01 -0.2959773E+01  0.3539129E+05  0.2824250E+01  0.6088789E-01  0.2980700E+01  0.2647086E+06  0.2713611E+01  0.1895534E-07  0.1085173E+01
  0.2860000E+01  0.1302002E+06  0.2650181E+01  0.2229548E-01 -0.5988408E-03  0.3441771E+05  0.2768698E+01  0.2486661E-01 -0.1529230E+01  0.2603311E+06  0.2650168E+01  0.1341501E-06 -0.3250437E+00
  0.2880000E+01  0.1280351E+06  0.2589731E+01  0.2742952E-01  0.2970605E+01  0.3346420E+05  0.2712692E+01  0.7888517E-02  0.2232094E+01  0.2560020E+06  0.2589718E+01  0.4690020E-07  0.1690225E+01
  0.2900000E+01  0.1259173E+06  0.2530764E+01  0.9940132E-02 -0.3581811E+00  0.3252782E+05  0.2656192E+01  0.1117543E-01  0.1872786E+01  0.2517673E+06  0.2530749E+01  0.2378522E-07 -0.4023211E+00
  0.2920000E+01  0.1238232E+06  0.2472286E+01  0.1170866E-01  0.9445995E-01  0.3161199E+05  0.2599200E+01  0.3535245E-01  0.1662912E+00  0.2475806E+06  0.2472273E+01  0.6602227E-07 -0.1944426E+01
  0.2940000E+01  0.1217312E+06  0.2414031E+01  0.1008956E-01  0.2924962E+01  0.3071865E+05  0.2541647E+01  0.2209011E-01 -0.4473568E+00  0.2433976E+06  0.2414017E+01  0.9913158E-07  0.1661934E+01
  0.2960000E+01  0.1197041E+06  0.2355918E+01  0.6057083E-02  0.3685112E-01  0.2984283E+05  0.2483561E+01  0.4066492E-02 -0.1473846E+01  0.2393444E+06  0.2355904E+01  0.2612792E-07 -0.1508375E+01
  0.2980000E+01  0.1177130E+06  0.2297567E+01  0.1819353E-01 -0.1551645E-01  0.2898854E+05  0.2424829E+01  0.8934565E-01  0.3139501E+01  0.2353635E+06  0.2297552E+01  0.1285396E-06  0.1587100E+01
  0.3000000E+01  0.1157338E+06  0.2238899E+01  0.6815049E-02  0.3126199E+01  0.2814744E+05  0.2365394E+01  0.1067757E+00  0.3121799E+01  0.2314063E+06  0.2238883E+01  0.3684319E-07  0.1852568E+01
  0.3020000E+01  0.1137907E+06  0.2179943E+01  0.2112075E-01 -0.3049077E+01  0.2732283E+05  0.2305402E+01  0.3792641E-01 -0.1312330E+00  0.2275210E+06  0.2179927E+01  0.2196520E-07 -0.1939492E+01