VARIABLES="w (rad/s)"  
"abs(F   1   1)" "angle(F   1   1)"
"abs(F   1   2)" "angle(F   1   2)"
"abs(F   1   3)" "angle(F   1   3)"
"abs(F   1   4)" "angle(F   1   4)"
"abs(F   1   5)" "angle(F   1   5)"
"abs(F   1   6)" "angle(F   1   6)"
Zone t="Diffraction force - beta =   0.000 deg",I=   420,F=POINT
  0.2000000E-01  0.1181195E+04 -0.1570794E+01  0.1007646E-03  0.1973451E-01  0.1109392E+03 -0.3028898E+01  0.1430123E-03  0.2269372E+00  0.2361725E+04 -0.1570794E+01  0.9385703E-11  0.1446441E+01
  0.4000000E-01  0.2364793E+04 -0.1570787E+01  0.6570412E-04  0.3885351E+00  0.4013028E+03 -0.3016848E+01  0.6744239E-04 -0.2615694E+01  0.4728249E+04 -0.1570787E+01  0.2607937E-09  0.1557404E+01
  0.5999999E-01  0.3551145E+04 -0.1570774E+01  0.1391372E-03 -0.2928675E+00  0.8832078E+03 -0.3013295E+01  0.1675111E-03 -0.1817266E+01  0.7100289E+04 -0.1570774E+01  0.1271525E-08  0.1550195E+01
  0.8000000E-01  0.4743648E+04 -0.1570757E+01  0.1117581E-02 -0.3131796E+01  0.1533887E+04 -0.3009499E+01  0.2729850E-03 -0.2146920E+01  0.9484631E+04 -0.1570757E+01  0.1266676E-08  0.1581825E+01
  0.9999999E-01  0.5943903E+04 -0.1570733E+01  0.1284419E-02 -0.3108806E+01  0.2356932E+04 -0.3006198E+01  0.1394021E-02  0.3202065E+00  0.1188446E+05 -0.1570733E+01  0.7926720E-09 -0.1622222E+01
  0.1200000E+00  0.7154000E+04 -0.1570704E+01  0.1602000E-02  0.1684190E-01  0.3348858E+04 -0.3003032E+01  0.2253744E-02 -0.6048824E-01  0.1430396E+05 -0.1570704E+01  0.1182598E-08  0.1695151E+01
  0.1400000E+00  0.8375711E+04 -0.1570667E+01  0.3965929E-02  0.4144549E-01  0.4506975E+04 -0.2999830E+01  0.5724419E-02 -0.2961222E+01  0.1674669E+05 -0.1570667E+01  0.2151602E-08  0.1585947E+01
  0.1600000E+00  0.9611556E+04 -0.1570623E+01  0.3355443E-02 -0.8451304E-01  0.5836492E+04 -0.2996683E+01  0.1294335E-02 -0.3126797E+01  0.1921767E+05 -0.1570623E+01  0.5737430E-08  0.1583783E+01
  0.1800000E+00  0.1086403E+05 -0.1570570E+01  0.1175051E-02  0.4622593E+00  0.7330085E+04 -0.2993317E+01  0.1007378E-01  0.3030071E+01  0.2172190E+05 -0.1570570E+01  0.1592561E-08 -0.1570796E+01
  0.2000000E+00  0.1213506E+05 -0.1570506E+01  0.8960560E-02 -0.3110201E+01  0.8993260E+04 -0.2989808E+01  0.2837918E-02 -0.6989839E-02  0.2426323E+05 -0.1570506E+01  0.8394827E-09  0.1626295E+01
  0.2200000E+00  0.1342803E+05 -0.1570431E+01  0.9256353E-02 -0.1430866E-01  0.1081959E+05 -0.2985999E+01  0.3051886E-02 -0.5936560E+00  0.2684841E+05 -0.1570431E+01  0.3690259E-08  0.1536088E+01
  0.2400000E+00  0.1474513E+05 -0.1570343E+01  0.4800770E-02  0.1321971E+00  0.1282533E+05 -0.2982071E+01  0.1241457E-01  0.9988008E-01  0.2948192E+05 -0.1570343E+01  0.3817116E-08 -0.1475498E+01
  0.2600000E+00  0.1608952E+05 -0.1570238E+01  0.1169984E-02 -0.5735866E+00  0.1499251E+05 -0.2977728E+01  0.9294027E-02 -0.2985420E+01  0.3216985E+05 -0.1570238E+01  0.1247045E-07 -0.1568369E+01
  0.2800000E+00  0.1746503E+05 -0.1570115E+01  0.6208723E-02 -0.2927135E+01  0.1733207E+05 -0.2973064E+01  0.9502750E-02  0.3086503E+01  0.3492010E+05 -0.1570115E+01  0.2040850E-08 -0.2034444E+01
  0.3000000E+00  0.1887342E+05 -0.1569969E+01  0.8391025E-02  0.3111805E+01  0.1984779E+05 -0.2968054E+01  0.3449833E-01  0.7024745E-01  0.3773608E+05 -0.1569969E+01  0.6153075E-08 -0.1525373E+01
  0.3200000E+00  0.2032105E+05 -0.1569797E+01  0.4160498E-02 -0.9471819E+00  0.2253104E+05 -0.2962599E+01  0.8162925E-02 -0.3131835E+01  0.4063051E+05 -0.1569797E+01  0.4024003E-08 -0.1552280E+01
  0.3400000E+00  0.2181107E+05 -0.1569593E+01  0.1315469E-02  0.6343870E+00  0.2538529E+05 -0.2956661E+01  0.4485048E-02 -0.5717404E+00  0.4360969E+05 -0.1569593E+01  0.4362560E-08 -0.1771751E+01
  0.3600000E+00  0.2334665E+05 -0.1569352E+01  0.1530620E-01  0.3017391E+01  0.2842044E+05 -0.2950278E+01  0.2587691E-01  0.3080750E+01  0.4667996E+05 -0.1569352E+01  0.1199755E-07 -0.1696884E+01
  0.3800000E+00  0.2493296E+05 -0.1569066E+01  0.5586678E-02 -0.3382105E+00  0.3162798E+05 -0.2943370E+01  0.1454005E-01  0.2798899E+01  0.4985172E+05 -0.1569066E+01  0.3556677E-08 -0.1670465E+01
  0.4000000E+00  0.2657609E+05 -0.1568727E+01  0.2243336E-01 -0.3008132E+01  0.3500680E+05 -0.2935887E+01  0.3167225E-01 -0.2625358E+00  0.5313696E+05 -0.1568727E+01  0.8629196E-08  0.1689797E+01
  0.4200000E+00  0.2827999E+05 -0.1568322E+01  0.1205643E-01  0.2988522E+01  0.3856094E+05 -0.2927779E+01  0.9857997E-02 -0.8043510E-01  0.5654371E+05 -0.1568322E+01  0.2295019E-07  0.1647568E+01
  0.4400000E+00  0.3004999E+05 -0.1567841E+01  0.5619321E-02 -0.2435998E+01  0.4227756E+05 -0.2919018E+01  0.1599428E-01 -0.1432503E-01  0.6008273E+05 -0.1567841E+01  0.7578889E-08 -0.1338932E+01
  0.4600000E+00  0.3189274E+05 -0.1567268E+01  0.9303592E-02  0.2760887E+01  0.4617491E+05 -0.2909724E+01  0.6591089E-01 -0.6765795E-01  0.6376714E+05 -0.1567268E+01  0.1661878E-07  0.1693553E+01
  0.4800000E+00  0.3381405E+05 -0.1566585E+01  0.9666452E-02 -0.2947544E+00  0.5022300E+05 -0.2899647E+01  0.3997587E-01  0.3106011E-01  0.6760868E+05 -0.1566585E+01  0.5171180E-08  0.1462526E+01
  0.5000000E+00  0.3581812E+05 -0.1565771E+01  0.2430687E-01  0.1948843E+00  0.5441006E+05 -0.2888780E+01  0.1119316E-01 -0.2078486E+01  0.7161554E+05 -0.1565771E+01  0.1310125E-07 -0.1668697E+01
  0.5200000E+00  0.3791105E+05 -0.1564803E+01  0.1162833E-01  0.1476674E+00  0.5875411E+05 -0.2877351E+01  0.7310682E-02  0.1914847E+01  0.7580011E+05 -0.1564803E+01  0.9812803E-08  0.1731888E+01
  0.5399999E+00  0.4009883E+05 -0.1563657E+01  0.3906422E-01  0.2970487E+01  0.6319967E+05 -0.2865162E+01  0.3683266E-01 -0.3027816E+01  0.8017433E+05 -0.1563657E+01  0.2994978E-07 -0.1528804E+01
  0.5599999E+00  0.4238589E+05 -0.1562296E+01  0.3052576E-01 -0.2735696E+01  0.6777481E+05 -0.2852278E+01  0.1130569E-01  0.5830895E+00  0.8474712E+05 -0.1562296E+01  0.1077079E-07  0.1449444E+01
  0.5799999E+00  0.4477390E+05 -0.1560691E+01  0.1131657E-01  0.2605052E+01  0.7245542E+05 -0.2838823E+01  0.3843882E-01 -0.2923899E+01  0.8952154E+05 -0.1560691E+01  0.1325887E-07 -0.1631945E+01
  0.5999999E+00  0.4726616E+05 -0.1558810E+01  0.1564589E-01 -0.3133327E+01  0.7719071E+05 -0.2824803E+01  0.4061112E-01 -0.5246966E+00  0.9450466E+05 -0.1558810E+01  0.6757705E-08 -0.1051650E+01
  0.6199999E+00  0.4986526E+05 -0.1556615E+01  0.1344481E-01 -0.2189276E+01  0.8201643E+05 -0.2810543E+01  0.4380009E-01 -0.1257801E+01  0.9970142E+05 -0.1556615E+01  0.2685624E-07 -0.1592298E+01
  0.6399999E+00  0.5257086E+05 -0.1554059E+01  0.2906338E-01  0.2761825E+01  0.8687327E+05 -0.2795692E+01  0.4261469E-01 -0.2690387E+01  0.1051110E+06 -0.1554059E+01  0.3439555E-07 -0.1414194E+01
  0.6599999E+00  0.5537851E+05 -0.1551109E+01  0.4439222E-01  0.2643904E+00  0.9172290E+05 -0.2780449E+01  0.2298481E-01 -0.2096734E+01  0.1107245E+06 -0.1551109E+01  0.9930344E-08  0.1951303E+01
  0.6799999E+00  0.5828584E+05 -0.1547731E+01  0.4708961E-01  0.2997665E+01  0.9656591E+05 -0.2765135E+01  0.6978451E-01  0.4026948E+00  0.1165372E+06 -0.1547731E+01  0.4164876E-08 -0.1526493E+00
  0.6999999E+00  0.6128896E+05 -0.1543890E+01  0.1815484E-01  0.1878744E+01  0.1013938E+06 -0.2749881E+01  0.4299685E-01  0.9435611E+00  0.1225418E+06 -0.1543890E+01  0.2422893E-07  0.1665110E+01
  0.7199998E+00  0.6438188E+05 -0.1539531E+01  0.1965308E-01 -0.2399283E+00  0.1062172E+06 -0.2734545E+01  0.1429805E+00 -0.2716913E+01  0.1287256E+06 -0.1539531E+01  0.1208855E-07  0.2553590E+01
  0.7399999E+00  0.6755364E+05 -0.1534627E+01  0.1446372E-01  0.2825165E+01  0.1109667E+06 -0.2719152E+01  0.1118863E+00  0.2538515E+01  0.1350673E+06 -0.1534627E+01  0.3051902E-07  0.1457645E+01
  0.7599999E+00  0.7079567E+05 -0.1529155E+01  0.2476844E-01  0.1332628E+01  0.1156707E+06 -0.2704128E+01  0.1649591E+00  0.1660984E+01  0.1415493E+06 -0.1529155E+01  0.1028755E-07  0.2283154E+01
  0.7799999E+00  0.7409907E+05 -0.1523089E+01  0.9417214E-02 -0.3084570E+01  0.1203147E+06 -0.2689573E+01  0.3024072E-01 -0.2784224E+01  0.1481540E+06 -0.1523089E+01  0.1100088E-06  0.1494784E+01
  0.8000000E+00  0.7745421E+05 -0.1516376E+01  0.6814137E-01  0.2212119E+01  0.1248567E+06 -0.2674979E+01  0.1019536E+00 -0.5185140E+00  0.1548622E+06 -0.1516376E+01  0.7778634E-08 -0.1279340E+01
  0.8199999E+00  0.8084661E+05 -0.1508984E+01  0.2423969E-01  0.1215490E+01  0.1293493E+06 -0.2660689E+01  0.1059249E+00 -0.2696995E+01  0.1616450E+06 -0.1508984E+01  0.1416938E-07 -0.1325818E+01
  0.8399999E+00  0.8426165E+05 -0.1500900E+01  0.4443679E-01  0.8292378E+00  0.1337378E+06 -0.2646707E+01  0.6317584E-01 -0.2830737E+01  0.1684728E+06 -0.1500900E+01  0.1955777E-08 -0.9272952E+00
  0.8599999E+00  0.8768651E+05 -0.1492107E+01  0.7541084E-01 -0.2356794E+01  0.1380456E+06 -0.2633277E+01  0.3242553E-01 -0.2359548E+01  0.1753202E+06 -0.1492106E+01  0.1243105E-06  0.1519229E+01
  0.8799999E+00  0.9110737E+05 -0.1482591E+01  0.6175254E-01  0.1348569E+00  0.1422246E+06 -0.2620184E+01  0.1194697E+00 -0.1328189E+00  0.1821599E+06 -0.1482591E+01  0.2648409E-07 -0.1431087E+01
  0.8999999E+00  0.9450945E+05 -0.1472286E+01  0.3006757E-01  0.7680735E+00  0.1463294E+06 -0.2607341E+01  0.5806173E-01 -0.2477158E+01  0.1889617E+06 -0.1472286E+01  0.3293565E-07 -0.1313473E+01
  0.9199999E+00  0.9787244E+05 -0.1461186E+01  0.6825875E-01  0.2766875E+01  0.1502797E+06 -0.2594445E+01  0.1618543E+00  0.2336850E+01  0.1956858E+06 -0.1461186E+01  0.2529061E-07 -0.1383367E+01
  0.9399999E+00  0.1011772E+06 -0.1449280E+01  0.7114173E-01  0.2973003E-01  0.1541575E+06 -0.2582152E+01  0.8381324E-01  0.3263827E+00  0.2022932E+06 -0.1449280E+01  0.1761796E-07  0.1107149E+01
  0.9599999E+00  0.1044064E+06 -0.1436584E+01  0.1788090E-01 -0.2684711E+01  0.1579338E+06 -0.2570381E+01  0.1091877E+00  0.1204822E+01  0.2087494E+06 -0.1436583E+01  0.2463563E-07 -0.1369842E+01
  0.9799999E+00  0.1075399E+06 -0.1423086E+01  0.2638569E-01  0.1451981E+01  0.1615603E+06 -0.2558888E+01  0.2280528E-01  0.2939909E+01  0.2150146E+06 -0.1423085E+01  0.2570175E-07 -0.1282741E+01
  0.9999999E+00  0.1105551E+06 -0.1408752E+01  0.4362762E-01  0.1365262E+01  0.1650842E+06 -0.2547784E+01  0.5782866E-01 -0.1996490E+01  0.2210432E+06 -0.1408751E+01  0.6065226E-07 -0.1826948E+01
  0.1020000E+01  0.1134288E+06 -0.1393576E+01  0.3046476E-01 -0.2729312E+00  0.1684575E+06 -0.2536663E+01  0.1009375E+00  0.2886118E+01  0.2267885E+06 -0.1393576E+01  0.1019813E-07 -0.2657115E+01
  0.1040000E+01  0.1161435E+06 -0.1377590E+01  0.8190279E-01  0.2696692E+01  0.1716548E+06 -0.2525575E+01  0.2436647E-01 -0.1956125E+01  0.2322156E+06 -0.1377588E+01  0.9098938E-08  0.2701750E+01
  0.1060000E+01  0.1186480E+06 -0.1360821E+01  0.1516933E-01 -0.1437134E+01  0.1747669E+06 -0.2515108E+01  0.6842366E-01  0.1099398E+01  0.2372231E+06 -0.1360819E+01  0.3231107E-07  0.1244215E+01
  0.1080000E+01  0.1209475E+06 -0.1343259E+01  0.1164786E+00  0.6181433E+00  0.1777282E+06 -0.2504940E+01  0.8950148E-02 -0.3037836E+01  0.2418205E+06 -0.1343258E+01  0.2938069E-07  0.1690905E+01
  0.1100000E+01  0.1230055E+06 -0.1324834E+01  0.1021884E+00  0.2759954E+01  0.1805338E+06 -0.2494920E+01  0.1376242E+00  0.1456738E+01  0.2459354E+06 -0.1324832E+01  0.2336116E-07 -0.2480550E+01
  0.1120000E+01  0.1248059E+06 -0.1305794E+01  0.2565116E-01 -0.1556805E+01  0.1832462E+06 -0.2485728E+01  0.2605456E+00  0.2810092E+01  0.2495346E+06 -0.1305793E+01  0.4221903E-07 -0.2045493E+01
  0.1140000E+01  0.1263116E+06 -0.1285982E+01  0.5848894E-01  0.2374747E+00  0.1857739E+06 -0.2476389E+01  0.9830400E-01  0.1656823E+01  0.2525446E+06 -0.1285979E+01  0.7666564E-07  0.1647037E+01
  0.1160000E+01  0.1275093E+06 -0.1265547E+01  0.6027363E-01  0.2771126E+01  0.1881310E+06 -0.2467218E+01  0.1499269E+00  0.1872704E+01  0.2549394E+06 -0.1265545E+01  0.5921423E-07  0.2518162E+01
  0.1180000E+01  0.1283582E+06 -0.1244444E+01  0.8099810E-01  0.1307857E+01  0.1903131E+06 -0.2458047E+01  0.2101833E+00 -0.7307632E+00  0.2566365E+06 -0.1244442E+01  0.3826293E-07  0.6119025E+00
  0.1200000E+01  0.1288659E+06 -0.1222793E+01  0.5233419E-01 -0.2607640E+01  0.1923778E+06 -0.2449648E+01  0.1765432E+00  0.1673760E+00  0.2576516E+06 -0.1222790E+01  0.1211538E-06 -0.1049362E+01
  0.1220000E+01  0.1289886E+06 -0.1200596E+01  0.9610655E-01  0.3066913E+01  0.1942700E+06 -0.2441336E+01  0.2575647E+00 -0.2108263E+01  0.2578969E+06 -0.1200593E+01  0.8476982E-07 -0.1443116E+01
  0.1240000E+01  0.1287127E+06 -0.1177915E+01  0.7430890E-01  0.3136611E+01  0.1960110E+06 -0.2433346E+01  0.1389989E+00 -0.1795734E+01  0.2573450E+06 -0.1177911E+01  0.1812216E-07 -0.2749253E+01
  0.1260000E+01  0.1280258E+06 -0.1154776E+01  0.9053653E-01 -0.2490453E+01  0.1975718E+06 -0.2425380E+01  0.7471791E-01 -0.2003563E+01  0.2559717E+06 -0.1154773E+01  0.1708794E-06  0.1168610E+01
  0.1280000E+01  0.1269433E+06 -0.1131304E+01  0.8444544E-01  0.2279037E+01  0.1989585E+06 -0.2417699E+01  0.3729004E-01  0.1390347E+01  0.2538067E+06 -0.1131300E+01  0.1044494E-06  0.6640462E+00
  0.1300000E+01  0.1254471E+06 -0.1107537E+01  0.1093184E+00 -0.1407510E+01  0.2001623E+06 -0.2410161E+01  0.3027866E+00  0.1313867E+01  0.2508152E+06 -0.1107533E+01  0.1036439E-06  0.1376837E+01
  0.1320000E+01  0.1234949E+06 -0.1083404E+01  0.9174167E-01  0.1507191E+01  0.2012390E+06 -0.2403038E+01  0.1779168E+00  0.8703209E+00  0.2469119E+06 -0.1083400E+01  0.3640607E-07 -0.2040180E+00
  0.1340000E+01  0.1211220E+06 -0.1059076E+01  0.9457342E-01 -0.1625952E+01  0.2021540E+06 -0.2396391E+01  0.4067121E-01 -0.9475316E+00  0.2421672E+06 -0.1059070E+01  0.1362806E-07  0.2863293E+01
  0.1360000E+01  0.1183241E+06 -0.1034550E+01  0.5008000E-01  0.2740646E+01  0.2028853E+06 -0.2389752E+01  0.1167483E+00 -0.1057088E+01  0.2365731E+06 -0.1034543E+01  0.5633516E-07  0.1424130E+01
  0.1380000E+01  0.1151232E+06 -0.1009899E+01  0.2997869E-01 -0.1080366E+01  0.2034220E+06 -0.2383291E+01  0.2219253E+00  0.1078943E+01  0.2301735E+06 -0.1009892E+01  0.5198414E-07  0.1719686E+01
  0.1400000E+01  0.1114899E+06 -0.9850544E+00  0.2483900E-01 -0.1819191E+01  0.2038107E+06 -0.2376882E+01  0.1692584E+00  0.1251396E+01  0.2229087E+06 -0.9850469E+00  0.5539451E-07 -0.4636476E+00
  0.1420000E+01  0.1074609E+06 -0.9600838E+00  0.1354843E+00  0.1214563E+01  0.2040462E+06 -0.2371269E+01  0.1039280E+00  0.1560639E+01  0.2148532E+06 -0.9600762E+00  0.3987221E-07 -0.1471128E+01
  0.1440000E+01  0.1030459E+06 -0.9349692E+00  0.4717338E-01 -0.2123560E+01  0.2040903E+06 -0.2365266E+01  0.6875810E-01 -0.1910435E+01  0.2060258E+06 -0.9349602E+00  0.6620492E-07  0.1692639E+01
  0.1460000E+01  0.9825670E+05 -0.9096669E+00  0.7748207E-01  0.3808918E+00  0.2039854E+06 -0.2359797E+01  0.5205161E-01 -0.4710647E+00  0.1964502E+06 -0.9096571E+00  0.5978178E-07 -0.1270625E+01
  0.1480000E+01  0.9311746E+05 -0.8841399E+00  0.4830085E-01 -0.2030654E+01  0.2037060E+06 -0.2354293E+01  0.2743175E+00 -0.1002169E+01  0.1861750E+06 -0.8841285E+00  0.6087051E-07 -0.2105391E+01
  0.1500000E+01  0.8765240E+05 -0.8583204E+00  0.9078792E-01 -0.2894902E+01  0.2032559E+06 -0.2349288E+01  0.1770308E+00 -0.2534826E+01  0.1752482E+06 -0.8583073E+00  0.3261291E-07 -0.2969402E+01
  0.1520000E+01  0.8187150E+05 -0.8320091E+00  0.7107560E-01 -0.1839595E+01  0.2026498E+06 -0.2344389E+01  0.3998829E-01 -0.3871841E+00  0.1636898E+06 -0.8319943E+00  0.3400412E-07  0.3099950E+01
  0.1540000E+01  0.7580434E+05 -0.8050345E+00  0.1974103E-01 -0.2902289E+01  0.2018795E+06 -0.2339626E+01  0.3542850E+00  0.1611964E+01  0.1515595E+06 -0.8050177E+00  0.4713928E-07 -0.1340577E+01
  0.1560000E+01  0.6947389E+05 -0.7770708E+00  0.1194948E+00 -0.2091356E+01  0.2009493E+06 -0.2334993E+01  0.1050524E+00 -0.1296317E+00  0.1389022E+06 -0.7770516E+00  0.6887322E-07  0.2483325E+01
  0.1580000E+01  0.6290314E+05 -0.7476304E+00  0.9700318E-01 -0.2201696E+01  0.1998557E+06 -0.2331247E+01  0.1222015E+00 -0.8141311E+00  0.1257647E+06 -0.7476078E+00  0.1979687E-07 -0.7328151E+00
  0.1600000E+01  0.5611859E+05 -0.7159668E+00  0.2716585E-01  0.2240498E+01  0.1986223E+06 -0.2326773E+01  0.1506349E+00 -0.1840400E+01  0.1122000E+06 -0.7159398E+00  0.2004746E-07  0.2408777E+01
  0.1620000E+01  0.4914568E+05 -0.6808227E+00  0.1258075E+00 -0.1327292E+01  0.1972342E+06 -0.2323030E+01  0.1703121E+00 -0.9014573E+00  0.9825848E+05 -0.6807894E+00  0.3598912E-07  0.2565217E+01
  0.1640000E+01  0.4202327E+05 -0.6402627E+00  0.3687352E-01  0.8444129E+00  0.1956714E+06 -0.2319398E+01  0.8754847E-01 -0.2303582E+01  0.8401806E+05 -0.6402231E+00  0.2331427E-07  0.2589938E+01
  0.1660000E+01  0.3477813E+05 -0.5902706E+00  0.1003343E+00 -0.1782533E+01  0.1939695E+06 -0.2315917E+01  0.1238853E+00 -0.9727777E+00  0.6953233E+05 -0.5902199E+00  0.2015731E-07 -0.2574863E+01
  0.1680000E+01  0.2746042E+05 -0.5227218E+00  0.2594565E-01 -0.1353581E+01  0.1921076E+06 -0.2313214E+01  0.7257908E-01 -0.1868482E+01  0.5490166E+05 -0.5226526E+00  0.6451101E-08 -0.2896614E+01
  0.1700000E+01  0.2016103E+05 -0.4179039E+00  0.1128674E+00  0.8233182E+00  0.1901092E+06 -0.2310330E+01  0.1322348E+00 -0.2151913E+01  0.4030772E+05 -0.4178026E+00  0.1276455E-07  0.2622447E+01
  0.1720000E+01  0.1311615E+05 -0.2141566E+00  0.6045930E-01 -0.1293279E+01  0.1880018E+06 -0.2307205E+01  0.6383661E-01  0.2939223E+01  0.2622316E+05 -0.2139841E+00  0.2026229E-07  0.1892547E+01
  0.1740000E+01  0.7411532E+04  0.3385689E+00  0.8112536E-01 -0.2203839E+01  0.1857212E+06 -0.2305053E+01  0.2060819E+00  0.1619805E+01  0.1481997E+05  0.3388719E+00  0.1394008E-07 -0.6202495E+00
  0.1760000E+01  0.7617139E+04  0.1442468E+01  0.4037529E-01  0.1882733E+01  0.1833164E+06 -0.2302832E+01  0.9018992E-01 -0.1729294E+01  0.1523436E+05  0.1442517E+01  0.1351659E-07 -0.1325818E+01
  0.1780000E+01  0.1352499E+05  0.1965893E+01  0.9518906E-01 -0.2244337E+01  0.1808076E+06 -0.2300588E+01  0.1325250E+00  0.1601530E+01  0.2704631E+05  0.1965828E+01  0.3056747E-07  0.1789465E+01
  0.1800000E+01  0.2073845E+05  0.2160134E+01  0.8265570E-01 -0.1243250E+01  0.1781185E+06 -0.2299311E+01  0.6482935E-01 -0.2392630E+00  0.4146839E+05  0.2160071E+01  0.2120473E-07  0.2819842E+01
  0.1820000E+01  0.2825969E+05  0.2259444E+01  0.6068328E-02 -0.1784067E+01  0.1753203E+06 -0.2298002E+01  0.6809834E-01  0.5877199E+00  0.5650607E+05  0.2259391E+01  0.3032121E-07  0.1107149E+01
  0.1840000E+01  0.3587103E+05  0.2321938E+01  0.8915459E-01  0.2904631E+01  0.1724479E+06 -0.2296476E+01  0.1695948E-01 -0.2293159E+01  0.7172403E+05  0.2321891E+01  0.9992112E-08 -0.5404195E+00
  0.1860000E+01  0.4349771E+05  0.2366694E+01  0.1308063E+00  0.1187113E+01  0.1694100E+06 -0.2295904E+01  0.2549381E-01 -0.1000935E+01  0.8697262E+05  0.2366653E+01  0.6811108E-07  0.1698306E+01
  0.1880000E+01  0.5108264E+05  0.2401177E+01  0.1197847E-01  0.7681457E+00  0.1662728E+06 -0.2295340E+01  0.1512102E+00  0.1094756E+01  0.1021379E+06  0.2401141E+01  0.1661036E-07  0.1892547E+01
  0.1900000E+01  0.5859877E+05  0.2429205E+01  0.5645938E-01 -0.1701662E+01  0.1630810E+06 -0.2294636E+01  0.1838073E+00 -0.2774184E+01  0.1171657E+06  0.2429172E+01  0.5390483E-07 -0.1165905E+01
  0.1920000E+01  0.6603572E+05  0.2453126E+01  0.4367901E-01 -0.2249606E+01  0.1597440E+06 -0.2294688E+01  0.1088876E+00  0.7003126E+00  0.1320350E+06  0.2453096E+01  0.6557865E-07  0.2022249E+01
  0.1940000E+01  0.7336944E+05  0.2473964E+01  0.2901589E-01  0.1873955E+01  0.1562509E+06 -0.2295442E+01  0.1903833E+00 -0.2094481E+01  0.1466980E+06  0.2473935E+01  0.8228226E-07  0.1235158E+01
  0.1960000E+01  0.8057917E+05  0.2492548E+01  0.5259148E-01  0.2145427E+01  0.1527028E+06 -0.2296331E+01  0.2108823E+00  0.1558564E+01  0.1611132E+06  0.2492523E+01  0.2016211E-07 -0.3050933E+01
  0.1980000E+01  0.8764909E+05  0.2509364E+01  0.1667589E-01 -0.1044010E+01  0.1490699E+06 -0.2297646E+01  0.9869048E-01 -0.2846582E+01  0.1752488E+06  0.2509341E+01  0.7959777E-07 -0.2823505E+01
  0.2000000E+01  0.9457341E+05  0.2524656E+01  0.8646377E-01 -0.9930358E+00  0.1453992E+06 -0.2299263E+01  0.2789648E-01  0.1416484E+01  0.1890933E+06  0.2524634E+01  0.3711294E-07 -0.1264917E+01
  0.2020000E+01  0.1013216E+06  0.2538820E+01  0.7241897E-01 -0.1618057E+01  0.1415811E+06 -0.2301624E+01  0.1635516E+00 -0.5944349E+00  0.2025860E+06  0.2538799E+01  0.9849315E-07  0.4978223E+00
  0.2040000E+01  0.1078872E+06  0.2551978E+01  0.5589802E-01  0.3234620E+00  0.1376725E+06 -0.2304639E+01  0.1522598E+00 -0.2423176E+01  0.2157130E+06  0.2551958E+01  0.5381274E-07  0.1931633E+01
  0.2060000E+01  0.1142566E+06  0.2564270E+01  0.1725880E-01  0.5733927E+00  0.1336718E+06 -0.2308438E+01  0.1554030E+00 -0.1022901E+01  0.2284483E+06  0.2564251E+01  0.1151115E-07  0.0000000E+00
  0.2080000E+01  0.1204173E+06  0.2575802E+01  0.5211394E-01 -0.1762515E+01  0.1295735E+06 -0.2313205E+01  0.9391445E-01 -0.7306925E+00  0.2407661E+06  0.2575785E+01  0.1371176E-06 -0.1488899E+00
  0.2100000E+01  0.1263565E+06  0.2586658E+01  0.5224590E-01  0.2135902E+01  0.1253642E+06 -0.2319231E+01  0.3613812E-01 -0.2000050E+01  0.2526412E+06  0.2586642E+01  0.2506525E-07  0.3587707E+00
  0.2120000E+01  0.1320624E+06  0.2596911E+01  0.4954482E-01  0.2573550E+01  0.1210213E+06 -0.2326964E+01  0.4184747E-01  0.7228569E+00  0.2640497E+06  0.2596895E+01  0.1162312E-06 -0.2165866E+01
  0.2140000E+01  0.1375233E+06  0.2606613E+01  0.7201388E-01 -0.2143342E+01  0.1164974E+06 -0.2337209E+01  0.1305161E+00  0.1170149E+01  0.2749687E+06  0.2606598E+01  0.9494781E-07  0.9682387E+00
  0.2160000E+01  0.1427283E+06  0.2615810E+01  0.5067842E-01  0.2265335E+01  0.1116910E+06 -0.2351522E+01  0.1087946E-01  0.1520410E+01  0.2853756E+06  0.2615796E+01  0.6313726E-07 -0.1895066E+01
  0.2180000E+01  0.1476665E+06  0.2624539E+01  0.3630140E-01  0.1771618E+01  0.1063609E+06 -0.2373400E+01  0.4830750E-01 -0.2051291E+01  0.2952496E+06  0.2624527E+01  0.2641320E-07 -0.3103150E+01
  0.2200000E+01  0.1523281E+06  0.2632839E+01  0.4433013E-01  0.4674681E+00  0.9978635E+05 -0.2412777E+01  0.4859058E-01  0.2895190E+01  0.3045699E+06  0.2632828E+01  0.1179191E-06  0.2623524E+01
  0.2220000E+01  0.1567032E+06  0.2640735E+01  0.2457242E-01  0.2338569E+01  0.8852226E+05 -0.2513586E+01  0.2907278E-01 -0.2414138E+01  0.3133178E+06  0.2640724E+01  0.1990390E-06 -0.3066862E+01
  0.2240000E+01  0.1607824E+06  0.2648250E+01  0.1096978E-01  0.3923045E+00  0.6055334E+04  0.1297113E+01  0.1307754E-02  0.2941794E+01  0.3214738E+06  0.2648240E+01  0.1706737E-06 -0.3000560E+01
  0.2260000E+01  0.1645565E+06  0.2655401E+01  0.1087321E-01 -0.1816274E+01  0.1087678E+06 -0.2045237E+01  0.6752688E-01 -0.1568817E+01  0.3290202E+06  0.2655392E+01  0.1036518E-06  0.8087332E+00
  0.2280000E+01  0.1680183E+06  0.2662209E+01  0.8398386E-02 -0.5157602E+00  0.9811938E+05 -0.2195724E+01  0.1588370E-01  0.2837502E-01  0.3359417E+06  0.2662200E+01  0.7487277E-07 -0.2681953E+00
  0.2300000E+01  0.1711591E+06  0.2668687E+01  0.1028704E+00 -0.1657132E+01  0.9160699E+05 -0.2247317E+01  0.4341758E-01  0.2871202E+01  0.3422218E+06  0.2668680E+01  0.9984579E-07  0.1622830E+00
  0.2320000E+01  0.1739724E+06  0.2674851E+01  0.1305159E-01  0.2038315E+01  0.8628587E+05 -0.2276824E+01  0.7235092E-02  0.1581500E+01  0.3478471E+06  0.2674845E+01  0.1633791E-06  0.3013957E+01
  0.2340000E+01  0.1764515E+06  0.2680710E+01  0.3999082E-01  0.1193138E+01  0.8147177E+05 -0.2298413E+01  0.1119417E+00  0.1017944E+01  0.3528044E+06  0.2680705E+01  0.6792675E-07 -0.1311227E+01
  0.2360000E+01  0.1785899E+06  0.2686268E+01  0.2889702E-01 -0.8516797E+00  0.7693402E+05 -0.2316690E+01  0.2241546E-01  0.5256315E+00  0.3570799E+06  0.2686263E+01  0.6461476E-07  0.2416363E+01
  0.2380000E+01  0.1803830E+06  0.2691538E+01  0.5947312E-01 -0.1282376E+01  0.7257302E+05 -0.2333665E+01  0.1878317E+00 -0.1913071E+01  0.3606655E+06  0.2691534E+01  0.5801524E-07  0.2004538E+01
  0.2400000E+01  0.1818258E+06  0.2696518E+01  0.3504065E-01  0.1345035E+01  0.6834342E+05 -0.2350410E+01  0.6522648E-01 -0.1156220E+01  0.3635502E+06  0.2696516E+01  0.1677721E-06 -0.3997869E-01
  0.2420000E+01  0.1829128E+06  0.2701207E+01  0.1780803E-01  0.3467115E+00  0.6422379E+05 -0.2367607E+01  0.8184811E-01 -0.2495204E+01  0.3657241E+06  0.2701205E+01  0.3588872E-07 -0.1957134E+01
  0.2440000E+01  0.1836414E+06  0.2705606E+01  0.1031976E-01 -0.1234374E+01  0.6020304E+05 -0.2385756E+01  0.7883734E-01 -0.1809905E+01  0.3671805E+06  0.2705605E+01  0.1137363E-06  0.4496966E-01
  0.2460000E+01  0.1840080E+06  0.2709709E+01  0.1444206E-01 -0.2352662E+01  0.5627680E+05 -0.2405299E+01  0.1246847E+00  0.1866545E+01  0.3679142E+06  0.2709709E+01  0.1149187E-06 -0.3061763E+01
  0.2480000E+01  0.1840114E+06  0.2713511E+01  0.7138117E-01 -0.1284159E+01  0.5244536E+05 -0.2426655E+01  0.5315147E-01 -0.1712146E+01  0.3679202E+06  0.2713511E+01  0.6317935E-07 -0.3159703E+00
  0.2500000E+01  0.1836490E+06  0.2716994E+01  0.3415111E-01 -0.2327707E+01  0.4871114E+05 -0.2450279E+01  0.7690603E-01 -0.1682416E+01  0.3671953E+06  0.2716994E+01  0.3133476E-06  0.9301440E-01
  0.2520000E+01  0.1829174E+06  0.2720130E+01  0.1447427E-01 -0.2061178E+01  0.4507920E+05 -0.2476683E+01  0.5700282E-01 -0.3776018E+00  0.3657337E+06  0.2720132E+01  0.1106050E-06 -0.3016191E+00
  0.2540000E+01  0.1818152E+06  0.2722890E+01  0.4545940E-01 -0.1819148E+01  0.4155558E+05 -0.2506474E+01  0.2270005E-01 -0.2285812E+01  0.3635298E+06  0.2722892E+01  0.6191261E-07  0.7583777E+00
  0.2560000E+01  0.1803409E+06  0.2725228E+01  0.1056683E-01 -0.1315143E+01  0.3814800E+05 -0.2540385E+01  0.9783242E-01  0.1542394E+01  0.3605821E+06  0.2725231E+01  0.1407932E-06  0.4234755E-01
  0.2580000E+01  0.1784925E+06  0.2727079E+01  0.3640588E-01 -0.1037621E+01  0.3486604E+05 -0.2579320E+01  0.1112642E-01 -0.3453891E+00  0.3568868E+06  0.2727084E+01  0.3128181E-06  0.5379420E-01
  0.2600000E+01  0.1762668E+06  0.2728348E+01  0.3872625E-01 -0.1596698E+01  0.3172137E+05 -0.2624404E+01  0.3009219E-01 -0.8783475E+00  0.3524361E+06  0.2728352E+01  0.2436525E-07  0.4636476E+00
  0.2620000E+01  0.1736569E+06  0.2728879E+01  0.1620017E-01 -0.2821842E+01  0.2872850E+05 -0.2677044E+01  0.7146820E-01  0.1041152E+01  0.3472178E+06  0.2728884E+01  0.1422790E-07  0.5404195E+00
  0.2640000E+01  0.1706465E+06  0.2728427E+01  0.2373901E-01  0.1380982E+01  0.2590567E+05 -0.2738992E+01  0.6673491E-01  0.2702513E+01  0.3411988E+06  0.2728433E+01  0.9220093E-07 -0.3141593E+01
  0.2660000E+01  0.1672130E+06  0.2726587E+01  0.1352357E-01  0.6454707E+00  0.2327526E+05 -0.2812390E+01  0.2507854E-01  0.2003225E+01  0.3343337E+06  0.2726593E+01  0.1265616E-06  0.5875583E-01
  0.2680000E+01  0.1633060E+06  0.2722604E+01  0.1824247E-01 -0.1597489E+01  0.2086577E+05 -0.2899755E+01  0.5036272E-02  0.3893649E+00  0.3265222E+06  0.2722611E+01  0.1386148E-06 -0.3602045E-01
  0.2700000E+01  0.1588014E+06  0.2714916E+01  0.1686553E-01  0.9853132E+00  0.1871279E+05 -0.3003808E+01  0.4548073E-01  0.6568174E+00  0.3175155E+06  0.2714923E+01  0.8783018E-07 -0.2910502E+01
  0.2720000E+01  0.1533901E+06  0.2699724E+01  0.1461502E-01 -0.1123342E+01  0.1685914E+05 -0.3126964E+01  0.6179338E-01 -0.1138674E+01  0.3066961E+06  0.2699732E+01  0.6820842E-07 -0.2878598E+01
  0.2740000E+01  0.1459796E+06  0.2664643E+01  0.1442537E-01  0.8966745E-02  0.1535264E+05  0.3012834E+01  0.3234296E-01  0.1423301E+01  0.2918799E+06  0.2664652E+01  0.5450698E-07  0.1929567E+01
  0.2760000E+01  0.1289069E+06  0.2533898E+01  0.2188346E-01 -0.1815877E+01  0.1423876E+05  0.2850882E+01  0.5468162E-01 -0.1449922E+01  0.2577450E+06  0.2533908E+01  0.7068738E-07 -0.3141593E+01
  0.2780000E+01  0.1595504E+06 -0.2879717E+01  0.5203379E-02  0.1302645E+01  0.1354697E+05  0.2676087E+01  0.3970989E-02 -0.2497824E+01  0.3190061E+06 -0.2879709E+01  0.9199422E-07  0.2900027E+01
  0.2799999E+01  0.1481829E+06  0.2914683E+01  0.2739251E-01 -0.1586492E+01  0.1327691E+05  0.2497847E+01  0.2988473E-02  0.2325862E+01  0.2962823E+06  0.2914693E+01  0.3129922E-07  0.1549966E+01
  0.2819999E+01  0.1392625E+06  0.2852157E+01  0.1595763E-01 -0.1917278E+01  0.1338939E+05  0.2326673E+01  0.1553761E-01  0.2580140E+01  0.2784470E+06  0.2852168E+01  0.7266738E-07  0.5729662E+00
  0.2840000E+01  0.1321168E+06  0.2828209E+01  0.3585045E-02  0.1921697E+01  0.1381512E+05  0.2170748E+01  0.2269663E-01 -0.1863316E+01  0.2641594E+06  0.2828219E+01  0.1619604E-06  0.3850552E+00
  0.2860000E+01  0.1254339E+06  0.2815453E+01  0.1344919E-01  0.1795484E+01  0.1447180E+05  0.2034141E+01  0.1464598E-01  0.1168484E+01  0.2507972E+06  0.2815463E+01  0.6658956E-07 -0.9272952E+00
  0.2880000E+01  0.1188585E+06  0.2807269E+01  0.7959933E-02  0.9313323E+00  0.1528055E+05  0.1917257E+01  0.2557431E-01 -0.1398841E+01  0.2376502E+06  0.2807280E+01  0.6241901E-07 -0.8843110E+00
  0.2900000E+01  0.1122632E+06  0.2801232E+01  0.2525913E-02 -0.1744945E+01  0.1617479E+05  0.1818334E+01  0.1065159E-02  0.2331406E+01  0.2244631E+06  0.2801243E+01  0.4757228E-07 -0.3027801E+01
  0.2920000E+01  0.1056000E+06  0.2796206E+01  0.3303769E-02  0.4720821E+00  0.1710250E+05  0.1734741E+01  0.8936380E-02  0.2817804E+01  0.2111402E+06  0.2796217E+01  0.2783767E-07 -0.1786154E+01
  0.2940000E+01  0.9885301E+05  0.2791560E+01  0.4919437E-02 -0.9214782E+00  0.1802442E+05  0.1663804E+01  0.4342004E-02  0.1542663E+01  0.1976499E+06  0.2791572E+01  0.1101931E-06 -0.1460504E+01
  0.2960000E+01  0.9202397E+05  0.2786868E+01  0.1925811E-03 -0.7701742E+00  0.1891185E+05  0.1603117E+01  0.4312044E-02  0.3208331E-01  0.1839954E+06  0.2786879E+01  0.4534231E-07  0.1804716E+01
  0.2980000E+01  0.8511794E+05  0.2781794E+01  0.2679747E-02 -0.2900649E+01  0.1974349E+05  0.1550699E+01  0.3911285E-02 -0.2816941E+01  0.1701867E+06  0.2781805E+01  0.5203765E-08 -0.3141593E+01
  0.3000000E+01  0.7814706E+05  0.2776021E+01  0.2748599E-02 -0.1067338E+01  0.2050471E+05  0.1504925E+01  0.4802622E-02 -0.2654299E+01  0.1562485E+06  0.2776032E+01  0.6628040E-07 -0.1187355E+01
  0.3020000E+01  0.7112862E+05  0.2769181E+01  0.1470805E-02 -0.7497362E+00  0.2118403E+05  0.1464501E+01  0.9794896E-02 -0.2234470E+01  0.1422153E+06  0.2769192E+01  0.4783477E-07 -0.1541393E+01