VARIABLES="w (rad/s)"  
"abs(F   1   1)" "angle(F   1   1)"
"abs(F   1   2)" "angle(F   1   2)"
"abs(F   1   3)" "angle(F   1   3)"
"abs(F   1   4)" "angle(F   1   4)"
"abs(F   1   5)" "angle(F   1   5)"
"abs(F   1   6)" "angle(F   1   6)"
Zone t="Diffraction force - beta =   0.000 deg",I=   420,F=POINT
  0.2000000E-01  0.1180425E+04 -0.1570794E+01  0.4481763E-04 -0.2127900E-03  0.1109383E+03 -0.3028895E+01  0.1954344E-03  0.1385401E+00  0.2360184E+04 -0.1570794E+01  0.7730043E-09  0.1574938E+01
  0.4000000E-01  0.2363232E+04 -0.1570787E+01  0.1484443E-03  0.2897421E+01  0.4012974E+03 -0.3016845E+01  0.2132033E-03  0.2755048E+01  0.4725132E+04 -0.1570787E+01  0.2263128E-08 -0.1567196E+01
  0.5999999E-01  0.3548898E+04 -0.1570774E+01  0.2038297E-03 -0.7446137E-01  0.8831982E+03 -0.3013293E+01  0.3549647E-03 -0.2663342E+01  0.7095794E+04 -0.1570774E+01  0.1508759E-08  0.1566167E+01
  0.8000000E-01  0.4740636E+04 -0.1570757E+01  0.1647672E-03  0.6809149E+00  0.1533868E+04 -0.3009497E+01  0.7257528E-04  0.3031749E+00  0.9478609E+04 -0.1570757E+01  0.7454217E-09  0.1602036E+01
  0.9999999E-01  0.5940127E+04 -0.1570733E+01  0.8453063E-03 -0.2933146E+01  0.2356903E+04 -0.3006195E+01  0.1153617E-02  0.3074701E+00  0.1187690E+05 -0.1570733E+01  0.1081661E-08  0.1430421E+01
  0.1200000E+00  0.7149440E+04 -0.1570704E+01  0.1088290E-02  0.7623853E-03  0.3348813E+04 -0.3003030E+01  0.1381656E-02 -0.4681205E+00  0.1429486E+05 -0.1570704E+01  0.1900103E-08  0.1556092E+01
  0.1400000E+00  0.8370494E+04 -0.1570667E+01  0.6180379E-03  0.1769866E+00  0.4506916E+04 -0.2999827E+01  0.4713058E-02 -0.3048000E+01  0.1673626E+05 -0.1570667E+01  0.4635669E-09 -0.1747505E+01
  0.1600000E+00  0.9605462E+04 -0.1570623E+01  0.1897426E-02  0.1491047E+00  0.5836412E+04 -0.2996681E+01  0.5170088E-03  0.9622465E+00  0.1920547E+05 -0.1570623E+01  0.7972469E-08 -0.1580142E+01
  0.1800000E+00  0.1085715E+05 -0.1570570E+01  0.4393828E-02  0.1423190E+00  0.7329987E+04 -0.2993315E+01  0.3214518E-02  0.2562662E+01  0.2170818E+05 -0.1570570E+01  0.2688831E-08 -0.1500599E+01
  0.2000000E+00  0.1212732E+05 -0.1570506E+01  0.1021048E-02 -0.3126508E+01  0.8993126E+04 -0.2989806E+01  0.1346526E-01 -0.8096325E-01  0.2424782E+05 -0.1570506E+01  0.7357595E-08  0.1564467E+01
  0.2200000E+00  0.1341951E+05 -0.1570431E+01  0.1157330E-02  0.2959932E+00  0.1081941E+05 -0.2985997E+01  0.6645194E-03 -0.1741006E+01  0.2683142E+05 -0.1570431E+01  0.1108117E-07  0.1515298E+01
  0.2400000E+00  0.1473561E+05 -0.1570343E+01  0.1312467E-02  0.8553581E+00  0.1282510E+05 -0.2982068E+01  0.8071030E-02  0.1538697E+00  0.2946286E+05 -0.1570343E+01  0.6798016E-09 -0.1405648E+01
  0.2600000E+00  0.1607919E+05 -0.1570238E+01  0.6306367E-02  0.8207066E-01  0.1499226E+05 -0.2977726E+01  0.1113220E-01  0.3020774E-01  0.3214927E+05 -0.1570238E+01  0.1199472E-07  0.1608657E+01
  0.2800000E+00  0.1745368E+05 -0.1570115E+01  0.5531944E-02 -0.3059271E+01  0.1733177E+05 -0.2973062E+01  0.1896338E-01  0.3094868E+01  0.3489745E+05 -0.1570115E+01  0.3055717E-08  0.1377585E+01
  0.3000000E+00  0.1886115E+05 -0.1569969E+01  0.4473570E-02 -0.6572796E-01  0.1984743E+05 -0.2968051E+01  0.1532960E-01 -0.2858258E+01  0.3771160E+05 -0.1569969E+01  0.3495252E-08  0.1610775E+01
  0.3200000E+00  0.2030791E+05 -0.1569797E+01  0.1773142E-02  0.1221312E+01  0.2253061E+05 -0.2962596E+01  0.5583487E-02  0.3059762E+01  0.4060425E+05 -0.1569797E+01  0.1264405E-08 -0.7853982E+00
  0.3400000E+00  0.2179671E+05 -0.1569593E+01  0.3475141E-02 -0.3038072E+01  0.2538484E+05 -0.2956660E+01  0.9803447E-02 -0.2432439E+00  0.4358095E+05 -0.1569593E+01  0.9919022E-09  0.2642246E+01
  0.3600000E+00  0.2333118E+05 -0.1569352E+01  0.8579995E-02  0.2864097E+01  0.2841992E+05 -0.2950277E+01  0.2187582E-01  0.3024988E+01  0.4664901E+05 -0.1569352E+01  0.2869501E-08  0.1687905E+01
  0.3800000E+00  0.2491646E+05 -0.1569066E+01  0.1905038E-02  0.2379888E+01  0.3162734E+05 -0.2943368E+01  0.2237319E-01 -0.1056277E+00  0.4981874E+05 -0.1569066E+01  0.1353215E-07  0.1459417E+01
  0.4000000E+00  0.2655849E+05 -0.1568727E+01  0.1089139E-01 -0.3071995E+01  0.3500610E+05 -0.2935885E+01  0.1180794E-01 -0.6944797E+00  0.5310170E+05 -0.1568727E+01  0.7657261E-08  0.1892547E+01
  0.4200000E+00  0.2826083E+05 -0.1568322E+01  0.1056547E-01 -0.2793324E+01  0.3856006E+05 -0.2927778E+01  0.3639216E-01  0.2805246E+01  0.5650547E+05 -0.1568322E+01  0.6350256E-08  0.1741008E+01
  0.4400000E+00  0.3002971E+05 -0.1567841E+01  0.2586633E-02 -0.2112435E+00  0.4227659E+05 -0.2919017E+01  0.2582852E-01  0.2895688E+01  0.6004218E+05 -0.1567841E+01  0.2766502E-07  0.1589313E+01
  0.4600000E+00  0.3187126E+05 -0.1567268E+01  0.1104518E-01 -0.3109912E+01  0.4617374E+05 -0.2909724E+01  0.5693204E-01  0.2963417E+00  0.6372410E+05 -0.1567268E+01  0.1928581E-07 -0.1543026E+01
  0.4800000E+00  0.3379077E+05 -0.1566585E+01  0.7374572E-02 -0.6496061E+00  0.5022175E+05 -0.2899647E+01  0.4444929E-02  0.3077137E+00  0.6756207E+05 -0.1566585E+01  0.2169962E-08  0.9685089E+00
  0.5000000E+00  0.3579313E+05 -0.1565771E+01  0.1163258E-01  0.2515233E+01  0.5440858E+05 -0.2888780E+01  0.1007718E-01 -0.2207540E+01  0.7156560E+05 -0.1565771E+01  0.2211891E-08  0.0000000E+00
  0.5200000E+00  0.3788458E+05 -0.1564804E+01  0.1602491E-01 -0.2428014E+01  0.5875241E+05 -0.2877350E+01  0.5051094E-01 -0.2879214E+01  0.7574720E+05 -0.1564804E+01  0.1526707E-07 -0.1610458E+01
  0.5399999E+00  0.4007102E+05 -0.1563657E+01  0.8254825E-02  0.2036397E+01  0.6319782E+05 -0.2865163E+01  0.9986171E-02  0.3111666E+00  0.8011882E+05 -0.1563657E+01  0.6164545E-08 -0.1776192E+01
  0.5599999E+00  0.4235565E+05 -0.1562296E+01  0.9518039E-02  0.2776778E+01  0.6777255E+05 -0.2852279E+01  0.2341587E-01  0.1997975E+00  0.8468655E+05 -0.1562296E+01  0.1663420E-07 -0.1728213E+01
  0.5799999E+00  0.4474152E+05 -0.1560692E+01  0.4082288E-02  0.1057713E+01  0.7245292E+05 -0.2838824E+01  0.7405443E-02  0.2434298E+00  0.8945697E+05 -0.1560692E+01  0.2010263E-07 -0.1678486E+01
  0.5999999E+00  0.4723199E+05 -0.1558811E+01  0.1329975E-01 -0.8159394E+00  0.7718778E+05 -0.2824804E+01  0.2466121E-01  0.1499795E+01  0.9443642E+05 -0.1558811E+01  0.5615805E-08 -0.1670465E+01
  0.6199999E+00  0.4982946E+05 -0.1556616E+01  0.3326477E-01  0.1019021E+00  0.8201319E+05 -0.2810545E+01  0.5338612E-01  0.9248176E-02  0.9962985E+05 -0.1556616E+01  0.5572178E-07  0.1575978E+01
  0.6399999E+00  0.5253188E+05 -0.1554060E+01  0.1976462E-01 -0.2770978E+01  0.8686981E+05 -0.2795693E+01  0.3108998E-01 -0.7224931E+00  0.1050329E+06 -0.1554060E+01  0.3874302E-08  0.1965587E+01
  0.6599999E+00  0.5533686E+05 -0.1551110E+01  0.1943463E-01 -0.6715063E+00  0.9171913E+05 -0.2780452E+01  0.1133283E-01 -0.1870398E+01  0.1106413E+06 -0.1551110E+01  0.4123923E-07  0.1518605E+01
  0.6799999E+00  0.5824200E+05 -0.1547732E+01  0.3109487E-01 -0.4132216E+00  0.9656150E+05 -0.2765138E+01  0.7307396E-01 -0.3117292E+01  0.1164495E+06 -0.1547732E+01  0.1204934E-07 -0.1518213E+01
  0.6999999E+00  0.6124295E+05 -0.1543892E+01  0.4876729E-01 -0.6624810E-01  0.1013889E+06 -0.2749884E+01  0.4396250E-01  0.3001049E+01  0.1224498E+06 -0.1543892E+01  0.2350552E-08  0.9827937E+00
  0.7199998E+00  0.6433231E+05 -0.1539533E+01  0.4481052E-01 -0.3005347E+00  0.1062118E+06 -0.2734548E+01  0.4063681E-01  0.2356189E+01  0.1286265E+06 -0.1539533E+01  0.6072108E-08 -0.1460139E+01
  0.7399999E+00  0.6750062E+05 -0.1534629E+01  0.4608203E-01 -0.4506824E+00  0.1109608E+06 -0.2719157E+01  0.3759988E-01 -0.2954997E+01  0.1349613E+06 -0.1534629E+01  0.1666901E-07  0.1695151E+01
  0.7599999E+00  0.7074011E+05 -0.1529158E+01  0.1255057E-01  0.1197574E+01  0.1156642E+06 -0.2704133E+01  0.7203618E-01  0.2549775E+01  0.1414382E+06 -0.1529158E+01  0.3133587E-07 -0.1892547E+01
  0.7799999E+00  0.7404050E+05 -0.1523093E+01  0.8997115E-02 -0.1746670E+01  0.1203077E+06 -0.2689579E+01  0.5397989E-01  0.3170246E+00  0.1480370E+06 -0.1523093E+01  0.2262458E-07 -0.1667270E+01
  0.8000000E+00  0.7739246E+05 -0.1516381E+01  0.2042825E-01  0.2722843E+01  0.1248491E+06 -0.2674986E+01  0.1453217E+00  0.5664246E+00  0.1547389E+06 -0.1516380E+01  0.2012002E-07  0.1589313E+01
  0.8199999E+00  0.8078029E+05 -0.1508989E+01  0.2521490E-01  0.9452470E+00  0.1293411E+06 -0.2660696E+01  0.4949925E-01  0.2632376E+01  0.1615121E+06 -0.1508989E+01  0.2247361E-07  0.1400061E+01
  0.8399999E+00  0.8419141E+05 -0.1500905E+01  0.1959531E-01 -0.3126793E+01  0.1337288E+06 -0.2646716E+01  0.3330041E-01  0.1764455E+01  0.1683326E+06 -0.1500905E+01  0.1527511E-07 -0.1338239E+01
  0.8599999E+00  0.8761347E+05 -0.1492113E+01  0.5704872E-01 -0.9246298E+00  0.1380358E+06 -0.2633286E+01  0.1821079E+00  0.2872578E+01  0.1751741E+06 -0.1492113E+01  0.1272079E-07  0.1078987E+01
  0.8799999E+00  0.9103106E+05 -0.1482599E+01  0.3679492E-01  0.1272399E+01  0.1422141E+06 -0.2620193E+01  0.1105458E+00 -0.2382622E+01  0.1820071E+06 -0.1482599E+01  0.1511201E-07 -0.2186689E+00
  0.8999999E+00  0.9442934E+05 -0.1472295E+01  0.5155583E-01  0.3177902E+00  0.1463178E+06 -0.2607350E+01  0.1172734E+00  0.3194118E+00  0.1888015E+06 -0.1472295E+01  0.1246059E-07 -0.2798569E+01
  0.9199999E+00  0.9778696E+05 -0.1461195E+01  0.2670722E-01  0.1067015E+01  0.1502675E+06 -0.2594455E+01  0.4549398E-01  0.1630395E+01  0.1955146E+06 -0.1461195E+01  0.4054518E-07 -0.1454305E+01
  0.9399999E+00  0.1010876E+06 -0.1449290E+01  0.9083878E-01  0.4605858E+00  0.1541444E+06 -0.2582162E+01  0.1576804E+00 -0.2189680E+00  0.2021138E+06 -0.1449290E+01  0.2368959E-07  0.1289959E+01
  0.9599999E+00  0.1043137E+06 -0.1436596E+01  0.4499422E-01  0.3539028E+00  0.1579196E+06 -0.2570392E+01  0.5365114E-01  0.2197007E+01  0.2085640E+06 -0.1436595E+01  0.1860438E-06 -0.1541958E+01
  0.9799999E+00  0.1074434E+06 -0.1423100E+01  0.3171477E-01  0.3385137E+00  0.1615455E+06 -0.2558899E+01  0.9158726E-02  0.1142387E+01  0.2148212E+06 -0.1423099E+01  0.5677087E-07  0.1490325E+01
  0.9999999E+00  0.1104556E+06 -0.1408769E+01  0.4053382E-01 -0.2275565E+01  0.1650683E+06 -0.2547796E+01  0.7655056E-01  0.7226177E+00  0.2208440E+06 -0.1408768E+01  0.4306296E-07  0.1194306E+01
  0.1020000E+01  0.1133242E+06 -0.1393594E+01  0.1640926E-01  0.2878382E+01  0.1684405E+06 -0.2536674E+01  0.5655739E-01 -0.3032539E+01  0.2265791E+06 -0.1393592E+01  0.1626051E-07  0.1453688E+01
  0.1040000E+01  0.1160339E+06 -0.1377607E+01  0.3543637E-01  0.1392154E+01  0.1716368E+06 -0.2525587E+01  0.8180167E-01 -0.2332585E+01  0.2319962E+06 -0.1377606E+01  0.4757125E-07 -0.9517303E+00
  0.1060000E+01  0.1185347E+06 -0.1360840E+01  0.4794371E-01  0.1647928E+01  0.1747478E+06 -0.2515121E+01  0.5380889E-01 -0.3021406E+01  0.2369967E+06 -0.1360839E+01  0.1030669E-07  0.1862253E+01
  0.1080000E+01  0.1208316E+06 -0.1343281E+01  0.8017116E-01 -0.1321125E+01  0.1777081E+06 -0.2504952E+01  0.1133512E+00  0.2776003E+01  0.2415886E+06 -0.1343279E+01  0.3701120E-07  0.2317752E+01
  0.1100000E+01  0.1228864E+06 -0.1324857E+01  0.2384501E-01  0.1852392E+01  0.1805122E+06 -0.2494931E+01  0.1248943E+00 -0.1253374E+01  0.2456968E+06 -0.1324856E+01  0.6790829E-07  0.1373401E+01
  0.1120000E+01  0.1246845E+06 -0.1305821E+01  0.1093974E-01  0.2963442E+01  0.1832238E+06 -0.2485740E+01  0.1623774E+00  0.2331477E+01  0.2492918E+06 -0.1305820E+01  0.1108810E-07  0.2289626E+01
  0.1140000E+01  0.1261864E+06 -0.1286008E+01  0.6304364E-01 -0.7933427E+00  0.1857500E+06 -0.2476399E+01  0.1215399E+00  0.1708670E+01  0.2522942E+06 -0.1286006E+01  0.6115887E-07 -0.1334239E+01
  0.1160000E+01  0.1273796E+06 -0.1265572E+01  0.3630140E-01  0.1074278E+01  0.1881059E+06 -0.2467229E+01  0.3877240E-01 -0.3060873E+01  0.2546800E+06 -0.1265570E+01  0.3517313E-07 -0.2312744E+01
  0.1180000E+01  0.1282262E+06 -0.1244470E+01  0.5458801E-01 -0.1397543E+01  0.1902867E+06 -0.2458056E+01  0.1181748E+00 -0.4317939E+00  0.2563721E+06 -0.1244467E+01  0.1088706E-06 -0.1717690E+01
  0.1200000E+01  0.1287323E+06 -0.1222820E+01  0.5225902E-01  0.1568241E+00  0.1923498E+06 -0.2449656E+01  0.9868050E-01  0.2146439E+01  0.2573849E+06 -0.1222818E+01  0.5863871E-07 -0.1704607E+01
  0.1220000E+01  0.1288538E+06 -0.1200624E+01  0.8870593E-01 -0.2328581E+01  0.1942404E+06 -0.2441342E+01  0.1725503E+00 -0.1852144E+01  0.2576271E+06 -0.1200621E+01  0.4823557E-07  0.1012197E+01
  0.1240000E+01  0.1285770E+06 -0.1177944E+01  0.4190821E-01  0.2912034E+01  0.1959804E+06 -0.2433353E+01  0.1078154E+00 -0.2877941E+01  0.2570737E+06 -0.1177940E+01  0.6405979E-07  0.9777938E+00
  0.1260000E+01  0.1278899E+06 -0.1154806E+01  0.3001623E-01 -0.2840250E+01  0.1975395E+06 -0.2425385E+01  0.2360749E+00 -0.1716029E+01  0.2556996E+06 -0.1154803E+01  0.7257489E-08  0.1815775E+01
  0.1280000E+01  0.1268060E+06 -0.1131330E+01  0.1085151E+00  0.2200224E+01  0.1989248E+06 -0.2417703E+01  0.1618369E+00 -0.2384928E+01  0.2535322E+06 -0.1131326E+01  0.4821717E-07 -0.1421906E+01
  0.1300000E+01  0.1253080E+06 -0.1107554E+01  0.3662831E-01 -0.2956888E+01  0.2001271E+06 -0.2410163E+01  0.3050381E-01  0.1989988E+01  0.2505373E+06 -0.1107551E+01  0.5182104E-07  0.2488746E+01
  0.1320000E+01  0.1233562E+06 -0.1083418E+01  0.1233452E+00  0.1366307E+01  0.2012020E+06 -0.2403036E+01  0.2871690E-01 -0.1784725E+01  0.2466346E+06 -0.1083413E+01  0.2172327E-07  0.2009133E+01
  0.1340000E+01  0.1209845E+06 -0.1059085E+01  0.7548828E-01 -0.1231634E+01  0.2021157E+06 -0.2396389E+01  0.1649532E+00  0.9897813E+00  0.2418928E+06 -0.1059080E+01  0.1373918E-06  0.1529910E+01
  0.1360000E+01  0.1181886E+06 -0.1034554E+01  0.8725266E-01  0.1345320E+01  0.2028454E+06 -0.2389747E+01  0.8663895E-01 -0.2784148E+01  0.2363022E+06 -0.1034548E+01  0.9032011E-07 -0.1182478E+01
  0.1380000E+01  0.1149896E+06 -0.1009897E+01  0.9538103E-01 -0.1126794E+01  0.2033801E+06 -0.2383283E+01  0.3052082E+00  0.1300169E+01  0.2299060E+06 -0.1009889E+01  0.6143591E-07 -0.6518691E+00
  0.1400000E+01  0.1113591E+06 -0.9850457E+00  0.1608640E+00 -0.1265088E+01  0.2037671E+06 -0.2376871E+01  0.2638213E+00  0.1268574E+01  0.2226476E+06 -0.9850374E+00  0.3324182E-07 -0.2411693E+01
  0.1420000E+01  0.1073330E+06 -0.9600644E+00  0.8902027E-01  0.2660157E+01  0.2040008E+06 -0.2371257E+01  0.7891029E-01  0.3847066E+00  0.2145975E+06 -0.9600561E+00  0.9830023E-08 -0.7378150E+00
  0.1440000E+01  0.1029200E+06 -0.9349301E+00  0.1100506E+00  0.2132626E+01  0.2040434E+06 -0.2365248E+01  0.1036451E+00 -0.3111988E+01  0.2057743E+06 -0.9349210E+00  0.3917426E-07  0.1450688E+01
  0.1460000E+01  0.9813320E+05 -0.9096040E+00  0.7820618E-01 -0.1710201E+01  0.2039364E+06 -0.2359775E+01  0.1504515E+00  0.6411800E+00  0.1962033E+06 -0.9095933E+00  0.4979753E-07 -0.1009303E+01
  0.1480000E+01  0.9299780E+05 -0.8840541E+00  0.1012937E+00  0.2012778E+01  0.2036550E+06 -0.2354265E+01  0.6646344E-01  0.1124358E+01  0.1859359E+06 -0.8840423E+00  0.9445770E-07  0.1936399E+01
  0.1500000E+01  0.8753730E+05 -0.8582116E+00  0.1240805E+00  0.8900713E+00  0.2032030E+06 -0.2349253E+01  0.1133981E+00  0.3115477E+01  0.1750182E+06 -0.8581979E+00  0.7478757E-07  0.9983364E+00
  0.1520000E+01  0.8176157E+05 -0.8318735E+00  0.6453176E-01  0.7462981E+00  0.2025951E+06 -0.2344351E+01  0.1002104E+00  0.2480072E+01  0.1634701E+06 -0.8318579E+00  0.8701110E-07  0.3835275E+00
  0.1540000E+01  0.7569950E+05 -0.8048641E+00  0.1762965E-01 -0.1588666E+01  0.2018229E+06 -0.2339580E+01  0.7775963E-01 -0.3208547E+00  0.1513497E+06 -0.8048483E+00  0.6351256E-07  0.1683947E+01
  0.1560000E+01  0.6937453E+05 -0.7768585E+00  0.2561399E-01  0.2170245E+01  0.2008906E+06 -0.2334941E+01  0.1363523E+00 -0.2540238E+00  0.1387035E+06 -0.7768394E+00  0.3252759E-07 -0.5136060E+00
  0.1580000E+01  0.6280983E+05 -0.7473689E+00  0.6354603E-01 -0.2962079E+01  0.1997946E+06 -0.2331187E+01  0.1830194E+00 -0.1119587E+01  0.1255783E+06 -0.7473460E+00  0.3397197E-07 -0.8673833E-01
  0.1600000E+01  0.5603113E+05 -0.7156298E+00  0.9680278E-01  0.8093551E-01  0.1985591E+06 -0.2326706E+01  0.9151378E-01 -0.2466633E+01  0.1120250E+06 -0.7156041E+00  0.2901903E-07  0.1061204E+01
  0.1620000E+01  0.4906387E+05 -0.6803794E+00  0.8433035E-01 -0.1159075E+01  0.1971689E+06 -0.2322950E+01  0.1016869E+00  0.1217076E+01  0.9809478E+05 -0.6803478E+00  0.3240286E-07 -0.1359703E+01
  0.1640000E+01  0.4194766E+05 -0.6396707E+00  0.9961360E-01  0.1477917E+01  0.1956039E+06 -0.2319306E+01  0.1114345E+00  0.1546794E+01  0.8386680E+05 -0.6396315E+00  0.1915311E-07 -0.3061763E+01
  0.1660000E+01  0.3470980E+05 -0.5894756E+00  0.6203599E-01 -0.1538509E+01  0.1938991E+06 -0.2315815E+01  0.1685823E+00 -0.1272561E+01  0.6939571E+05 -0.5894245E+00  0.3344499E-07 -0.2553590E+01
  0.1680000E+01  0.2740029E+05 -0.5216013E+00  0.1666879E-01 -0.1159809E+01  0.1920354E+06 -0.2313100E+01  0.2784594E+00  0.1485348E+01  0.5478138E+05 -0.5215320E+00  0.3319064E-07  0.2999696E+01
  0.1700000E+01  0.2011068E+05 -0.4161832E+00  0.5393274E-01 -0.1453078E+01  0.1900340E+06 -0.2310203E+01  0.1019789E-01  0.5944843E+00  0.4020705E+05 -0.4160808E+00  0.6717153E-08 -0.2356194E+01
  0.1720000E+01  0.1307955E+05 -0.2110385E+00  0.4698578E-01 -0.2526659E+01  0.1879244E+06 -0.2307063E+01  0.6873106E-01 -0.6445834E-01  0.2615000E+05 -0.2108651E+00  0.1702816E-07 -0.8519663E+00
  0.1740000E+01  0.7405138E+04  0.3450772E+00  0.4757791E-01  0.6412306E+00  0.1856412E+06 -0.2304891E+01  0.2689961E+00  0.1870523E+01  0.1480719E+05  0.3453793E+00  0.1528778E-07 -0.1012197E+01
  0.1760000E+01  0.7653432E+04  0.1445316E+01  0.6839659E-01 -0.9912267E+00  0.1832334E+06 -0.2302653E+01  0.1821405E+00  0.2060938E+01  0.1530697E+05  0.1445364E+01  0.8826972E-08  0.1190290E+01
  0.1780000E+01  0.1356111E+05  0.1965712E+01  0.6606887E-01  0.1199589E+01  0.1807214E+06 -0.2300388E+01  0.2044808E+00  0.2575714E+01  0.2711852E+05  0.1965647E+01  0.5977118E-08  0.9827937E+00
  0.1800000E+01  0.2076687E+05  0.2159590E+01  0.8687557E-01 -0.1123418E+01  0.1780298E+06 -0.2299087E+01  0.1795546E+00  0.1757438E+00  0.4152528E+05  0.2159527E+01  0.2400212E-07  0.1359703E+01
  0.1820000E+01  0.2828024E+05  0.2258905E+01  0.2580725E-01  0.8968169E+00  0.1752290E+06 -0.2297748E+01  0.2114334E+00  0.1088461E+01  0.5654723E+05  0.2258849E+01  0.5785414E-07  0.1015303E+01
  0.1840000E+01  0.3588367E+05  0.2321454E+01  0.6728534E-01 -0.1328892E+01  0.1723534E+06 -0.2296191E+01  0.3099428E-01  0.1424776E+01  0.7174938E+05  0.2321405E+01  0.1247544E-07 -0.2782996E+00
  0.1860000E+01  0.4350228E+05  0.2366274E+01  0.5706434E-01  0.1211251E+01  0.1693119E+06 -0.2295588E+01  0.1566214E+00  0.2081500E+01  0.8698181E+05  0.2366234E+01  0.8832827E-08 -0.2944197E+01
  0.1880000E+01  0.5107916E+05  0.2400828E+01  0.2360136E-01  0.4291580E+00  0.1661716E+06 -0.2294984E+01  0.3288237E-01 -0.9675345E+00  0.1021309E+06  0.2400792E+01  0.5407943E-07  0.1063698E+01
  0.1900000E+01  0.5858725E+05  0.2428910E+01  0.5531555E-01 -0.9367654E+00  0.1629754E+06 -0.2294238E+01  0.1336197E+00 -0.1421591E+01  0.1171427E+06  0.2428878E+01  0.2514950E-07 -0.8850669E+00
  0.1920000E+01  0.6601630E+05  0.2452887E+01  0.7391507E-01 -0.1524641E+01  0.1596340E+06 -0.2294241E+01  0.6234046E-01  0.3753412E+00  0.1319962E+06  0.2452857E+01  0.8599815E-07  0.1508378E+01
  0.1940000E+01  0.7334212E+05  0.2473778E+01  0.6938846E-01 -0.1523969E+00  0.1561373E+06 -0.2294935E+01  0.3068012E+00  0.1862599E+01  0.1466433E+06  0.2473750E+01  0.9481647E-07  0.2111216E+01
  0.1960000E+01  0.8054399E+05  0.2492408E+01  0.7271208E-01 -0.1834830E+01  0.1525841E+06 -0.2295760E+01  0.1727116E+00 -0.8855184E+00  0.1610430E+06  0.2492382E+01  0.8900074E-07 -0.1468066E+01
  0.1980000E+01  0.8760608E+05  0.2509265E+01  0.3598304E-01 -0.9544815E+00  0.1489449E+06 -0.2297000E+01  0.1791586E+00 -0.1493474E+01  0.1751626E+06  0.2509240E+01  0.1971031E-07 -0.1759018E+01
  0.2000000E+01  0.9451078E+05  0.2524766E+01  0.2669676E-01  0.3814085E+00  0.1452394E+06 -0.2298100E+01  0.1059744E+00  0.1203435E+01  0.1889681E+06  0.2524743E+01  0.7655562E-07  0.6386350E+00
  0.2020000E+01  0.1012485E+06  0.2538997E+01  0.1051288E-01 -0.1533956E+01  0.1414153E+06 -0.2300301E+01  0.2186776E+00 -0.1516892E+01  0.2024395E+06  0.2538976E+01  0.2357226E-07  0.2642246E+01
  0.2040000E+01  0.1078036E+06  0.2552223E+01  0.3864732E-01  0.1075997E+01  0.1375008E+06 -0.2303126E+01  0.1655090E+00 -0.2665034E+01  0.2155462E+06  0.2552204E+01  0.1551910E-06  0.9726073E+00
  0.2060000E+01  0.1141631E+06  0.2564583E+01  0.3567197E-01  0.1414914E+01  0.1334921E+06 -0.2306693E+01  0.5286843E-01  0.2277984E+01  0.2282616E+06  0.2564565E+01  0.5704183E-07  0.2798569E+01
  0.2080000E+01  0.1203141E+06  0.2576180E+01  0.9811261E-01 -0.2126057E+01  0.1293825E+06 -0.2311177E+01  0.4776876E-02  0.9483504E+00  0.2405600E+06  0.2576162E+01  0.4820548E-07  0.3916999E+00
  0.2100000E+01  0.1262440E+06  0.2587105E+01  0.6424557E-01 -0.2573877E+01  0.1251616E+06 -0.2316829E+01  0.6118660E-01 -0.7408956E-01  0.2524163E+06  0.2587090E+01  0.1518091E-07 -0.1310194E+01
  0.2120000E+01  0.1319410E+06  0.2597425E+01  0.3360975E-01 -0.3131998E+01  0.1208032E+06 -0.2324069E+01  0.8068252E-01 -0.2246970E+01  0.2638071E+06  0.2597410E+01  0.3135823E-07 -0.4918092E+00
  0.2140000E+01  0.1373935E+06  0.2607193E+01  0.4647093E-01  0.1456628E+01  0.1162571E+06 -0.2333632E+01  0.8503112E-01 -0.9519879E+00  0.2747091E+06  0.2607179E+01  0.9825785E-07 -0.2911373E+01
  0.2160000E+01  0.1425906E+06  0.2616464E+01  0.3314530E-01  0.2162660E+01  0.1114239E+06 -0.2346926E+01  0.1138290E+00 -0.2866316E+01  0.2851002E+06  0.2616450E+01  0.1464093E-06 -0.2216496E+00
  0.2180000E+01  0.1475218E+06  0.2625273E+01  0.5254496E-01 -0.2044205E+01  0.1060588E+06 -0.2367131E+01  0.1215012E+00 -0.2190696E+01  0.2949598E+06  0.2625260E+01  0.3428294E-06  0.1008472E+00
  0.2200000E+01  0.1521762E+06  0.2633648E+01  0.2885562E-01 -0.1535743E+01  0.9943369E+05 -0.2403307E+01  0.1167893E+00 -0.8814180E+00  0.3042662E+06  0.2633636E+01  0.1228150E-06 -0.4860319E+00
  0.2220000E+01  0.1565449E+06  0.2641619E+01  0.3754698E-01 -0.2784198E+01  0.8817070E+05 -0.2495703E+01  0.1219701E+00 -0.4635797E+00  0.3130011E+06  0.2641609E+01  0.9436531E-07 -0.1678502E+00
  0.2240000E+01  0.1606178E+06  0.2649214E+01  0.1219025E-01 -0.3061202E+01  0.9414457E+04  0.1466009E+01  0.3437262E-01 -0.1349623E+00  0.3211447E+06  0.2649204E+01  0.1279253E-06  0.6174059E+00
  0.2260000E+01  0.1643883E+06  0.2656468E+01  0.9127503E-01  0.1389410E+01  0.1108137E+06 -0.2067917E+01  0.1902096E+00  0.1475629E+01  0.3286840E+06  0.2656460E+01  0.1551497E-06  0.1706878E+01
  0.2280000E+01  0.1678470E+06  0.2663379E+01  0.1124466E-01 -0.3105128E+01  0.9875734E+05 -0.2207554E+01  0.2821221E-01 -0.2181844E+01  0.3355995E+06  0.2663372E+01  0.1551493E-06 -0.4743111E+00
  0.2300000E+01  0.1709865E+06  0.2669972E+01  0.2540940E-01 -0.6296866E+00  0.9193519E+05 -0.2255369E+01  0.1297270E+00  0.1788255E+01  0.3418767E+06  0.2669965E+01  0.2035136E-06  0.2591640E+01
  0.2320000E+01  0.1737984E+06  0.2676248E+01  0.1097262E-01 -0.2201231E+01  0.8649051E+05 -0.2282990E+01  0.1090220E+00  0.1254712E+01  0.3474990E+06  0.2676242E+01  0.1462632E-06  0.2629203E+01
  0.2340000E+01  0.1762770E+06  0.2682223E+01  0.7635788E-02 -0.9822668E+00  0.8161198E+05 -0.2303456E+01  0.7264972E-01 -0.3066384E+01  0.3524553E+06  0.2682219E+01  0.8477568E-07 -0.6486424E+00
  0.2360000E+01  0.1784168E+06  0.2687912E+01  0.6509350E-01  0.8561236E+00  0.7703193E+05 -0.2320990E+01  0.1391777E+00  0.1895105E+01  0.3567338E+06  0.2687908E+01  0.2010499E-06 -0.2330468E+00
  0.2380000E+01  0.1802118E+06  0.2693315E+01  0.3938557E-01  0.1032106E+01  0.7264408E+05 -0.2337437E+01  0.1002502E+00 -0.2412446E+01  0.3603231E+06  0.2693311E+01  0.1454543E-06  0.2918792E+01
  0.2400000E+01  0.1816571E+06  0.2698436E+01  0.1483606E-01  0.6462163E+00  0.6839672E+05 -0.2353784E+01  0.3776276E-01 -0.7757871E+00  0.3632132E+06  0.2698434E+01  0.2533745E-06  0.7947824E-01
  0.2420000E+01  0.1827497E+06  0.2703288E+01  0.1510622E-01 -0.2822475E+01  0.6426318E+05 -0.2370666E+01  0.1184037E+00 -0.2740644E+01  0.3653984E+06  0.2703287E+01  0.1610048E-06 -0.2619550E+00
  0.2440000E+01  0.1834862E+06  0.2707867E+01  0.4405810E-01  0.1258904E+01  0.6023143E+05 -0.2388564E+01  0.7555094E-01  0.1649139E+01  0.3668697E+06  0.2707866E+01  0.8624938E-07  0.2624897E+01
  0.2460000E+01  0.1838624E+06  0.2712169E+01  0.4077772E-01  0.1130127E+01  0.5629777E+05 -0.2407898E+01  0.6092152E-01  0.1456367E+01  0.3676227E+06  0.2712169E+01  0.3388998E-06 -0.1117770E+00
  0.2480000E+01  0.1838758E+06  0.2716182E+01  0.3684171E-01 -0.2835479E+01  0.5246105E+05 -0.2429080E+01  0.1012217E+00 -0.2821205E+01  0.3676492E+06  0.2716182E+01  0.3152099E-07  0.1423718E+01
  0.2500000E+01  0.1835255E+06  0.2719905E+01  0.1937931E-01 -0.1156769E+01  0.4872332E+05 -0.2452548E+01  0.3395972E-01  0.1089487E+01  0.3669492E+06  0.2719906E+01  0.1380786E-06  0.3040246E+01
  0.2520000E+01  0.1828117E+06  0.2723324E+01  0.6599987E-01  0.9825110E+00  0.4508862E+05 -0.2478812E+01  0.2978316E-01 -0.1017534E+01  0.3655223E+06  0.2723326E+01  0.9129689E-07  0.2492950E+01
  0.2540000E+01  0.1817340E+06  0.2726418E+01  0.5429046E-01  0.7570075E+00  0.4156262E+05 -0.2508471E+01  0.8386996E-01 -0.6343917E+00  0.3633673E+06  0.2726420E+01  0.4212356E-06  0.2808250E-01
  0.2560000E+01  0.1802915E+06  0.2729150E+01  0.1337244E-01 -0.8878864E+00  0.3815318E+05 -0.2542256E+01  0.4650287E-01 -0.1058364E+01  0.3604834E+06  0.2729153E+01  0.1907684E-06 -0.3122845E+01
  0.2580000E+01  0.1784834E+06  0.2731469E+01  0.9633038E-02  0.1133081E+01  0.3487015E+05 -0.2581065E+01  0.4297663E-01  0.1848829E+01  0.3568685E+06  0.2731472E+01  0.2552528E-06  0.3075651E+01
  0.2600000E+01  0.1763032E+06  0.2733289E+01  0.3865720E-01 -0.8265243E+00  0.3172537E+05 -0.2626023E+01  0.6789038E-01 -0.1614455E+01  0.3525092E+06  0.2733294E+01  0.1509520E-06 -0.1044571E+00
  0.2620000E+01  0.1737472E+06  0.2734500E+01  0.2197306E-01  0.1602983E+01  0.2873308E+05 -0.2678525E+01  0.5159559E-01 -0.7156911E+00  0.3473989E+06  0.2734505E+01  0.4540422E-07  0.1076899E+00
  0.2640000E+01  0.1708105E+06  0.2734921E+01  0.2071406E-01  0.1063568E+01  0.2591051E+05 -0.2740320E+01  0.2519633E-01 -0.1492476E+01  0.3415268E+06  0.2734927E+01  0.1003330E-06 -0.1228352E+00
  0.2660000E+01  0.1674750E+06  0.2734242E+01  0.2090281E-01  0.9087260E+00  0.2328059E+05 -0.2813540E+01  0.5605841E-01  0.1831778E+01  0.3348580E+06  0.2734250E+01  0.1560907E-06  0.1587168E-01
  0.2680000E+01  0.1636993E+06  0.2731888E+01  0.3511283E-01 -0.1156323E+01  0.2087148E+05 -0.2900687E+01  0.2336796E-01  0.3645825E+00  0.3273089E+06  0.2731895E+01  0.1846535E-06  0.2881861E+01
  0.2700000E+01  0.1594030E+06  0.2726686E+01  0.5498238E-02 -0.9055635E+00  0.1871858E+05 -0.3004470E+01  0.4096888E-01 -0.1300724E+01  0.3187189E+06  0.2726695E+01  0.1291276E-06  0.1171087E+00
  0.2720000E+01  0.1543699E+06  0.2715778E+01  0.9824503E-03  0.2859303E+01  0.1686438E+05 -0.3127304E+01  0.2677359E-01  0.2006060E+01  0.3086563E+06  0.2715787E+01  0.7705459E-07  0.4415924E+00
  0.2740000E+01  0.1478212E+06  0.2689849E+01  0.1924772E-01 -0.1716404E+01  0.1535641E+05  0.3012877E+01  0.2067249E-01  0.2275261E+01  0.2955627E+06  0.2689859E+01  0.9345565E-07  0.8200745E-01
  0.2760000E+01  0.1344293E+06  0.2592098E+01  0.8502370E-02 -0.2387284E+01  0.1423983E+05  0.2851341E+01  0.5842782E-01 -0.1667556E+01  0.2687887E+06  0.2592108E+01  0.1304424E-06  0.3042904E+01
  0.2780000E+01  0.1609419E+06 -0.2979720E+01  0.1220091E-01 -0.1089724E+00  0.1354391E+05  0.2676942E+01  0.1929654E-01  0.1699693E+01  0.3217813E+06 -0.2979713E+01  0.2230240E-06 -0.3994375E+00
  0.2799999E+01  0.1461726E+06  0.2882422E+01  0.2262607E-01 -0.1540963E+01  0.1326872E+05  0.2499000E+01  0.2805904E-01 -0.2098583E+01  0.2922611E+06  0.2882432E+01  0.6000904E-07 -0.1273096E+01
  0.2819999E+01  0.1378716E+06  0.2834011E+01  0.4120470E-02 -0.1007596E+01  0.1337514E+05  0.2328017E+01  0.3023168E-02 -0.1585475E+01  0.2756653E+06  0.2834021E+01  0.4672818E-07  0.3439692E+00
  0.2840000E+01  0.1310403E+06  0.2815761E+01  0.5741560E-02 -0.2485013E+01  0.1379465E+05  0.2172167E+01  0.1572951E-01  0.1142368E+00  0.2620066E+06  0.2815771E+01  0.1208675E-06 -0.2830222E+01
  0.2860000E+01  0.1245426E+06  0.2806100E+01  0.3638014E-02  0.2664491E+01  0.1444513E+05  0.2035582E+01  0.2932385E-01 -0.1391602E+01  0.2490148E+06  0.2806112E+01  0.4884243E-07 -0.4514531E+00
  0.2880000E+01  0.1180917E+06  0.2799883E+01  0.7226583E-02  0.6739396E+00  0.1524786E+05  0.1918694E+01  0.1278186E-01  0.2970138E+01  0.2361166E+06  0.2799894E+01  0.4697815E-07 -0.1989745E+01
  0.2900000E+01  0.1115907E+06  0.2795213E+01  0.9197482E-03  0.2333202E+01  0.1613633E+05  0.1819756E+01  0.2301972E-01 -0.2474460E+01  0.2231183E+06  0.2795225E+01  0.1025123E-06  0.2311934E+01
  0.2920000E+01  0.1050091E+06  0.2791196E+01  0.5469218E-02  0.2439425E+01  0.1705808E+05  0.1736150E+01  0.1480822E-02  0.6039762E+00  0.2099584E+06  0.2791208E+01  0.3640971E-07  0.1111324E+01
  0.2940000E+01  0.9833159E+05  0.2787321E+01  0.2301518E-02  0.1654238E+01  0.1797413E+05  0.1665210E+01  0.9987713E-02 -0.5271351E+00  0.1966072E+06  0.2787333E+01  0.2197754E-07  0.2889768E+01
  0.2960000E+01  0.9155943E+05  0.2783251E+01  0.2255095E-02  0.2676213E+01  0.1885552E+05  0.1604568E+01  0.1402936E-02 -0.3823959E-01  0.1830663E+06  0.2783262E+01  0.1934617E-07  0.1642104E+01
  0.2980000E+01  0.8470318E+05  0.2778691E+01  0.1990805E-02  0.3118036E+01  0.1968154E+05  0.1552219E+01  0.4640459E-02 -0.2753438E+01  0.1693574E+06  0.2778702E+01  0.5419027E-07 -0.1803353E+01
  0.3000000E+01  0.7777983E+05  0.2773338E+01  0.2289520E-02 -0.1626589E+01  0.2043637E+05  0.1506553E+01  0.4646741E-02  0.1483718E+01  0.1555144E+06  0.2773349E+01  0.2850155E-07  0.6287963E+00
  0.3020000E+01  0.7080479E+05  0.2766858E+01  0.4221272E-02  0.1878118E+01  0.2110900E+05  0.1466268E+01  0.4201328E-02 -0.1135971E+01  0.1415678E+06  0.2766868E+01  0.7630700E-07 -0.1281105E+01