VARIABLES="w (rad/s)"  
"abs(F   1   1)" "angle(F   1   1)"
"abs(F   1   2)" "angle(F   1   2)"
"abs(F   1   3)" "angle(F   1   3)"
"abs(F   1   4)" "angle(F   1   4)"
"abs(F   1   5)" "angle(F   1   5)"
"abs(F   1   6)" "angle(F   1   6)"
Zone t="Excitation force - beta =   0.000 deg",I=   420,F=POINT
  0.2000000E-01  0.3497204E+04 -0.1570795E+01  0.8041157E+00  0.3141589E+01  0.7697504E+06 -0.1620763E-04  0.1005533E+01  0.2779126E-04  0.6992433E+04 -0.1570797E+01  0.7781883E-08  0.2848230E+01
  0.4000000E-01  0.7000476E+04 -0.1570793E+01  0.8478548E+00  0.3141565E+01  0.7691565E+06 -0.6491611E-04  0.9794125E-01 -0.3246751E-03  0.1399700E+05 -0.1570795E+01  0.1869680E-07 -0.3052686E+01
  0.5999999E-01  0.1051384E+05 -0.1570790E+01  0.4675201E+00 -0.3141527E+01  0.7681654E+06 -0.1471072E-03  0.4255802E+00 -0.3836723E-03  0.2102179E+05 -0.1570789E+01  0.4101436E-07  0.3086443E+01
  0.8000000E-01  0.1404448E+05 -0.1570783E+01  0.8209517E+00 -0.8943477E-05  0.7668034E+06 -0.2634682E-03  0.1339603E+01 -0.1706639E-03  0.2808108E+05 -0.1570783E+01  0.1490873E-07  0.5374860E-01
  0.9999999E-01  0.1759784E+05 -0.1570775E+01  0.3325519E+00 -0.1359311E-03  0.7650665E+06 -0.4158365E-03  0.1196864E+01  0.3928078E-03  0.3518576E+05 -0.1570775E+01  0.7760077E-08 -0.3015872E+00
  0.1200000E+00  0.2117990E+05 -0.1570765E+01  0.1097599E+00  0.2805592E-03  0.7629570E+06 -0.6062401E-03  0.1199380E+01 -0.3141479E+01  0.4234789E+05 -0.1570765E+01  0.2164694E-07  0.2620432E+01
  0.1400000E+00  0.2479658E+05 -0.1570753E+01  0.2649145E+00  0.3140971E+01  0.7604807E+06 -0.8373437E-03  0.9664792E-01 -0.3131101E+01  0.4957925E+05 -0.1570753E+01  0.1495912E-07  0.3083349E+01
  0.1600000E+00  0.2845466E+05 -0.1570737E+01  0.6951639E+00 -0.3141184E+01  0.7576310E+06 -0.1112424E-02  0.3056460E+00 -0.3141431E+01  0.5689327E+05 -0.1570737E+01  0.4985198E-08 -0.2437526E+01
  0.1800000E+00  0.3216113E+05 -0.1570720E+01  0.2048072E+00  0.3138938E+01  0.7544159E+06 -0.1435412E-02  0.3769076E+00  0.2979587E-02  0.6430407E+05 -0.1570720E+01  0.8828290E-08 -0.5662034E+00
  0.2000000E+00  0.3592255E+05 -0.1570698E+01  0.4593098E+00 -0.3141082E+01  0.7508321E+06 -0.1811065E-02  0.1015579E+01  0.7061619E-04  0.7182482E+05 -0.1570698E+01  0.6339772E-07  0.6060325E+00
  0.2200000E+00  0.3974741E+05 -0.1570673E+01  0.7625667E-02 -0.1655559E-01  0.7468871E+06 -0.2244882E-02  0.7962099E+00 -0.2182202E-02  0.7947224E+05 -0.1570673E+01  0.3997426E-08 -0.1538755E+01
  0.2400000E+00  0.4364314E+05 -0.1570643E+01  0.1403289E+00  0.4489040E-02  0.7425623E+06 -0.2743547E-02  0.7425770E+00  0.3139891E+01  0.8726147E+05 -0.1570644E+01  0.4892965E-07 -0.2953380E+01
  0.2600000E+00  0.4761863E+05 -0.1570608E+01  0.7390698E+00 -0.8961371E-03  0.7378838E+06 -0.3314572E-02  0.7246463E+00 -0.2056404E-02  0.9521011E+05 -0.1570608E+01  0.1541531E-07  0.2875036E+01
  0.2800000E+00  0.5168357E+05 -0.1570566E+01  0.2438819E+00 -0.5508345E-02  0.7328354E+06 -0.3966992E-02  0.1717084E+01  0.3141248E+01  0.1033378E+06 -0.1570566E+01  0.2051727E-07 -0.1798820E+01
  0.3000000E+00  0.5584623E+05 -0.1570517E+01  0.2346567E+00  0.1088881E-02  0.7274188E+06 -0.4711341E-02  0.1158829E+01  0.2075763E-02  0.1116607E+06 -0.1570517E+01  0.8060786E-08  0.1536128E+01
  0.3200000E+00  0.6011975E+05 -0.1570458E+01  0.1439322E+00 -0.3118152E+01  0.7216438E+06 -0.5558759E-02  0.7870110E+00 -0.1411963E-03  0.1202055E+06 -0.1570458E+01  0.1925635E-07  0.2407559E+00
  0.3400000E+00  0.6451474E+05 -0.1570389E+01  0.4428804E+00  0.3139803E+01  0.7155111E+06 -0.6523819E-02  0.1567995E+00 -0.1606195E-01  0.1289929E+06 -0.1570389E+01  0.1977191E-07 -0.4555373E+00
  0.3600000E+00  0.6904199E+05 -0.1570308E+01  0.1815241E+00  0.1016232E-01  0.7090139E+06 -0.7622123E-02  0.3175597E-01  0.4792978E-01  0.1380449E+06 -0.1570308E+01  0.3649555E-07  0.2857860E+01
  0.3800000E+00  0.7371477E+05 -0.1570211E+01  0.2388146E+00 -0.3133865E+01  0.7021626E+06 -0.8870441E-02  0.6372877E+00  0.7804348E-02  0.1473877E+06 -0.1570211E+01  0.2347980E-07  0.1426711E+01
  0.4000000E+00  0.7854790E+05 -0.1570096E+01  0.6060330E+00 -0.3136614E+01  0.6949649E+06 -0.1028909E-01  0.1395419E+00 -0.5910483E-01  0.1570509E+06 -0.1570096E+01  0.2790725E-07 -0.1879355E+01
  0.4200000E+00  0.8355414E+05 -0.1569959E+01  0.3605883E+00  0.4870604E-02  0.6874211E+06 -0.1190297E-01  0.1861135E+00 -0.3137572E+01  0.1670604E+06 -0.1569959E+01  0.3075843E-07  0.4234199E+00
  0.4400000E+00  0.8874811E+05 -0.1569795E+01  0.1858799E+00 -0.1937084E-01  0.6795518E+06 -0.1373360E-01  0.8925644E+00 -0.1562524E-03  0.1774454E+06 -0.1569795E+01  0.5400921E-07 -0.1257552E+01
  0.4600000E+00  0.9414569E+05 -0.1569601E+01  0.5530019E-01  0.3079596E+01  0.6713425E+06 -0.1580604E-01  0.7158402E+00 -0.3135212E+01  0.1882375E+06 -0.1569601E+01  0.1365201E-07 -0.2006374E+01
  0.4800000E+00  0.9976195E+05 -0.1569369E+01  0.5788238E-01 -0.4775444E-01  0.6628342E+06 -0.1815489E-01  0.8791954E+00  0.3140350E+01  0.1994668E+06 -0.1569369E+01  0.5937127E-07 -0.2085818E+01
  0.5000000E+00  0.1056099E+06 -0.1569092E+01  0.4002417E+00  0.1169180E-01  0.6540473E+06 -0.2080961E-01  0.2934345E+00 -0.3328006E-01  0.2111593E+06 -0.1569092E+01  0.3297843E-07  0.1723177E+01
  0.5200000E+00  0.1117044E+06 -0.1568762E+01  0.1748153E+00  0.3131333E+01  0.6449699E+06 -0.2379446E-01  0.4804989E-01  0.1406680E+00  0.2233444E+06 -0.1568762E+01  0.9998492E-07  0.1437106E+01
  0.5399999E+00  0.1180585E+06 -0.1568371E+01  0.2740248E+00  0.3117371E+01  0.6356736E+06 -0.2713781E-01  0.6000766E-01 -0.3074288E+01  0.2360486E+06 -0.1568371E+01  0.2521733E-07 -0.2330600E+01
  0.5599999E+00  0.1246830E+06 -0.1567906E+01  0.2290032E-01 -0.2597872E+01  0.6261402E+06 -0.3088587E-01  0.6369024E+00  0.9867574E-02  0.2492942E+06 -0.1567906E+01  0.3197409E-07 -0.1293457E+01
  0.5799999E+00  0.1315841E+06 -0.1567358E+01  0.5339210E-01  0.3030872E+01  0.6164036E+06 -0.3505510E-01  0.5934223E+00 -0.3127518E+01  0.2630921E+06 -0.1567358E+01  0.1217808E-06 -0.1888677E+01
  0.5999999E+00  0.1387679E+06 -0.1566714E+01  0.1416938E+00 -0.5727682E-03  0.6065268E+06 -0.3965622E-01  0.9472457E+00 -0.2141538E-01  0.2774555E+06 -0.1566714E+01  0.2020348E-07  0.2427966E+01
  0.6199999E+00  0.1462373E+06 -0.1565961E+01  0.2133543E-01 -0.5344470E+00  0.5964789E+06 -0.4470760E-01  0.4876348E+00 -0.8551876E-01  0.2923901E+06 -0.1565961E+01  0.8899681E-07  0.1661124E+01
  0.6399999E+00  0.1539901E+06 -0.1565082E+01  0.1777561E+00  0.6046513E-01  0.5863413E+06 -0.5025451E-01  0.2718591E+00 -0.6690063E-01  0.3078905E+06 -0.1565082E+01  0.1410632E-07 -0.1719229E+01
  0.6599999E+00  0.1620172E+06 -0.1564067E+01  0.6008042E-01  0.1946530E+00  0.5761593E+06 -0.5628115E-01  0.6121762E+00 -0.3296076E-01  0.3239402E+06 -0.1564067E+01  0.1981095E-07  0.1758050E+01
  0.6799999E+00  0.1703100E+06 -0.1562903E+01  0.7194386E-01  0.9344628E-01  0.5659323E+06 -0.6277027E-01  0.9646223E-01  0.2852930E+01  0.3405205E+06 -0.1562903E+01  0.5800555E-07 -0.1628307E+01
  0.6999999E+00  0.1788553E+06 -0.1561577E+01  0.4076957E+00  0.4282526E-01  0.5556719E+06 -0.6971850E-01  0.7619592E+00  0.3095481E+01  0.3576062E+06 -0.1561577E+01  0.5487389E-07  0.1544487E+01
  0.7199998E+00  0.1876368E+06 -0.1560070E+01  0.1570275E+00 -0.3035643E-01  0.5453894E+06 -0.7718010E-01  0.7285185E+00 -0.8129685E-01  0.3751635E+06 -0.1560070E+01  0.1884588E-07  0.1511460E+01
  0.7399999E+00  0.1966318E+06 -0.1558372E+01  0.2512163E+00  0.1800022E-01  0.5351515E+06 -0.8511609E-01  0.8111377E-01  0.8954213E+00  0.3931484E+06 -0.1558372E+01  0.5219632E-07  0.7836317E+00
  0.7599999E+00  0.2058187E+06 -0.1556476E+01  0.7338612E+00  0.3109084E+01  0.5249201E+06 -0.9348989E-01  0.5544940E+00  0.3006466E+00  0.4115164E+06 -0.1556476E+01  0.3479830E-07 -0.1875788E+01
  0.7799999E+00  0.2151748E+06 -0.1554373E+01  0.6546924E-02 -0.7155035E-01  0.5147068E+06 -0.1022780E+00  0.8456929E+00 -0.3129299E+01  0.4302226E+06 -0.1554373E+01  0.1284817E-06  0.1520252E+01
  0.8000000E+00  0.2246766E+06 -0.1552044E+01  0.1817975E+00  0.2836763E+01  0.5045821E+06 -0.1115482E+00  0.1027999E+01 -0.4875657E-01  0.4492205E+06 -0.1552044E+01  0.2061473E-06  0.1460339E+01
  0.8199999E+00  0.2342956E+06 -0.1549479E+01  0.6187009E-01  0.2767131E+01  0.4944886E+06 -0.1213000E+00  0.9950030E+00 -0.3096092E+01  0.4684527E+06 -0.1549479E+01  0.8419214E-07 -0.1328501E+01
  0.8399999E+00  0.2440035E+06 -0.1546676E+01  0.2595610E+00  0.3014602E+01  0.4844734E+06 -0.1314821E+00  0.1899804E+01 -0.1051101E-01  0.4878623E+06 -0.1546676E+01  0.5130978E-07  0.1252145E+01
  0.8599999E+00  0.2537736E+06 -0.1543631E+01  0.5897065E+00 -0.3051374E+01  0.4745000E+06 -0.1420743E+00  0.6347094E+00 -0.3634733E-01  0.5073964E+06 -0.1543631E+01  0.2572771E-06  0.1487877E+01
  0.8799999E+00  0.2635779E+06 -0.1540342E+01  0.1766108E+00  0.3095797E+01  0.4646248E+06 -0.1530692E+00  0.1869426E+01 -0.8458144E-02  0.5269997E+06 -0.1540342E+01  0.4375975E-07  0.1874240E+01
  0.8999999E+00  0.2733892E+06 -0.1536790E+01  0.1477756E+00  0.1421670E+00  0.4548154E+06 -0.1645676E+00  0.4001670E+00 -0.8876357E-01  0.5466148E+06 -0.1536790E+01  0.1958725E-06 -0.1604085E+01
  0.9199999E+00  0.2831731E+06 -0.1532979E+01  0.5087563E+00  0.4889948E-01  0.4451655E+06 -0.1765437E+00  0.2192991E+00  0.5638820E+00  0.5661775E+06 -0.1532979E+01  0.8377941E-07 -0.1492234E+01
  0.9399999E+00  0.2928970E+06 -0.1528911E+01  0.1931628E+00  0.1231090E-01  0.4355560E+06 -0.1889590E+00  0.5979499E+00  0.3096091E+01  0.5856194E+06 -0.1528911E+01  0.1041226E-06 -0.1746473E+01
  0.9599999E+00  0.3025308E+06 -0.1524601E+01  0.3374915E+00 -0.2203535E-01  0.4260089E+06 -0.2018019E+00  0.5283243E+00  0.1930998E+00  0.6048808E+06 -0.1524600E+01  0.4155374E-07 -0.1221259E+01
  0.9799999E+00  0.3120408E+06 -0.1520053E+01  0.5028999E+00  0.5223091E-01  0.4165912E+06 -0.2150625E+00  0.2025221E+00  0.2533820E-01  0.6238948E+06 -0.1520053E+01  0.7481991E-07 -0.1422879E+01
  0.9999999E+00  0.3213913E+06 -0.1515270E+01  0.6612487E+00  0.6434921E-01  0.4072542E+06 -0.2287982E+00  0.5010847E+00 -0.3035812E+01  0.6425904E+06 -0.1515270E+01  0.2487158E-06 -0.1550200E+01
  0.1020000E+01  0.3305451E+06 -0.1510263E+01  0.2024044E+00 -0.4165826E-01  0.3980832E+06 -0.2430451E+00  0.9594421E+00  0.2637003E-01  0.6608909E+06 -0.1510263E+01  0.8376471E-07  0.1907208E+01
  0.1040000E+01  0.3394713E+06 -0.1505057E+01  0.4604606E+00  0.7636130E-01  0.3890915E+06 -0.2577465E+00  0.7883208E+00 -0.3112617E+01  0.6787386E+06 -0.1505057E+01  0.1400866E-06 -0.1483194E+01
  0.1060000E+01  0.3481068E+06 -0.1499693E+01  0.3518689E+00 -0.3098848E+01  0.3801462E+06 -0.2729191E+00  0.6146192E-01  0.1459987E+01  0.6960040E+06 -0.1499693E+01  0.2729929E-07  0.1394879E+01
  0.1080000E+01  0.3564423E+06 -0.1494178E+01  0.1695969E+00  0.2733424E+01  0.3713289E+06 -0.2885345E+00  0.9217888E-01 -0.1202224E-01  0.7126686E+06 -0.1494178E+01  0.5027374E-07 -0.1790791E+01
  0.1100000E+01  0.3644262E+06 -0.1488518E+01  0.8337990E+00  0.3096004E+01  0.3626675E+06 -0.3046279E+00  0.3146796E+00  0.2691868E+01  0.7286318E+06 -0.1488518E+01  0.9189657E-07 -0.1731613E+01
  0.1120000E+01  0.3720349E+06 -0.1482820E+01  0.1117793E+00 -0.2328357E+00  0.3540225E+06 -0.3211550E+00  0.2538165E+00  0.2803367E+01  0.7438438E+06 -0.1482820E+01  0.1011084E-06 -0.1503689E+01
  0.1140000E+01  0.3792164E+06 -0.1477069E+01  0.1827070E+00  0.3064903E+01  0.3455922E+06 -0.3381979E+00  0.5341563E+00  0.2955457E+01  0.7582018E+06 -0.1477068E+01  0.2629558E-06  0.1614267E+01
  0.1160000E+01  0.3859469E+06 -0.1471343E+01  0.1389265E+00  0.2986914E+01  0.3373229E+06 -0.3556973E+00  0.9237192E+00  0.2985867E+01  0.7716594E+06 -0.1471343E+01  0.3445187E-07  0.1890324E+01
  0.1180000E+01  0.3921757E+06 -0.1465674E+01  0.4457935E+00  0.1765056E+00  0.3292438E+06 -0.3736899E+00  0.6417589E+00 -0.2920826E+01  0.7841121E+06 -0.1465674E+01  0.1691890E-06  0.1236356E+01
  0.1200000E+01  0.3979018E+06 -0.1460126E+01  0.1229451E+01 -0.3120401E+01  0.3211979E+06 -0.3921155E+00  0.4033997E+00  0.7456163E-01  0.7955609E+06 -0.1460126E+01  0.2005812E-06 -0.1323115E+01
  0.1220000E+01  0.4030742E+06 -0.1454755E+01  0.5778080E+00  0.3129080E+01  0.3133281E+06 -0.4110261E+00  0.8686756E+00 -0.2884974E+01  0.8059041E+06 -0.1454755E+01  0.4640596E-06 -0.1571620E+01
  0.1240000E+01  0.4076745E+06 -0.1449624E+01  0.1100454E+00  0.9776705E-02  0.3055810E+06 -0.4304248E+00  0.8921292E+00 -0.1529619E+00  0.8150983E+06 -0.1449624E+01  0.5889843E-07  0.2100965E+01
  0.1260000E+01  0.4116825E+06 -0.1444788E+01  0.3055170E+00 -0.2961194E+01  0.2980232E+06 -0.4503076E+00  0.6847676E+00 -0.3042151E+01  0.8231121E+06 -0.1444788E+01  0.1868691E-06  0.1226002E+01
  0.1280000E+01  0.4151150E+06 -0.1440313E+01  0.2372238E+00  0.2769552E+00  0.2906039E+06 -0.4706216E+00  0.1298058E+00  0.2847692E+00  0.8299746E+06 -0.1440313E+01  0.3675700E-06  0.1350302E+01
  0.1300000E+01  0.4179527E+06 -0.1436265E+01  0.1286257E+00 -0.9927882E+00  0.2833518E+06 -0.4913721E+00  0.4821115E+00  0.6542029E+00  0.8356481E+06 -0.1436265E+01  0.7875788E-07 -0.1085466E+01
  0.1320000E+01  0.4201516E+06 -0.1432704E+01  0.3459042E+00  0.2696346E+00  0.2761947E+06 -0.5126827E+00  0.7280888E+00  0.2952844E+01  0.8400444E+06 -0.1432703E+01  0.2770361E-06 -0.1468826E+01
  0.1340000E+01  0.4217544E+06 -0.1429700E+01  0.3954498E+00 -0.2899569E+01  0.2691332E+06 -0.5344365E+00  0.1454132E+00 -0.2271922E+00  0.8432475E+06 -0.1429699E+01  0.3947275E-07 -0.1909186E+01
  0.1360000E+01  0.4227589E+06 -0.1427307E+01  0.3822357E+00  0.3090395E+01  0.2622605E+06 -0.5566658E+00  0.1466537E+00 -0.7694983E+00  0.8452569E+06 -0.1427307E+01  0.1735847E-06 -0.1619962E+01
  0.1380000E+01  0.4231953E+06 -0.1425579E+01  0.5153978E+00 -0.5172545E-01  0.2555452E+06 -0.5792804E+00  0.1028991E+01  0.1909045E+00  0.8461289E+06 -0.1425579E+01  0.3809569E-06 -0.1605714E+01
  0.1400000E+01  0.4230393E+06 -0.1424583E+01  0.2408536E-01 -0.1503522E+01  0.2490014E+06 -0.6024699E+00  0.1652451E+00  0.1791107E+01  0.8458168E+06 -0.1424583E+01  0.6490055E-07 -0.3607861E+00
  0.1420000E+01  0.4223384E+06 -0.1424363E+01  0.2423798E+00  0.5542489E+00  0.2424793E+06 -0.6261047E+00  0.1291145E+00  0.2194312E+01  0.8444150E+06 -0.1424363E+01  0.4215782E-06 -0.1587896E+01
  0.1440000E+01  0.4211108E+06 -0.1424966E+01  0.6248168E+00 -0.3077415E+01  0.2362238E+06 -0.6502081E+00  0.4192062E+00 -0.1564524E+00  0.8419621E+06 -0.1424966E+01  0.1610522E-06 -0.1702094E+01
  0.1460000E+01  0.4193795E+06 -0.1426439E+01  0.2637685E+00  0.1085902E+00  0.2300390E+06 -0.6748224E+00  0.3812646E+00 -0.6285104E-01  0.8384978E+06 -0.1426438E+01  0.2118080E-06 -0.1540100E+01
  0.1480000E+01  0.4171781E+06 -0.1428816E+01  0.8027167E-01 -0.2567547E+01  0.2240438E+06 -0.6998980E+00  0.2493562E+00 -0.1956260E+01  0.8340973E+06 -0.1428815E+01  0.4038203E-06 -0.1649985E+01
  0.1500000E+01  0.4145440E+06 -0.1432130E+01  0.1474958E+00 -0.1479915E+00  0.2181265E+06 -0.7254007E+00  0.1046348E+00 -0.1821887E+01  0.8288289E+06 -0.1432129E+01  0.2746095E-06  0.1647178E+01
  0.1520000E+01  0.4114941E+06 -0.1436413E+01  0.1385926E+00 -0.2626194E+01  0.2123642E+06 -0.7514236E+00  0.9750238E+00 -0.3126564E+01  0.8227328E+06 -0.1436413E+01  0.5417080E-07 -0.2270994E+01
  0.1540000E+01  0.4080712E+06 -0.1441688E+01  0.1016801E+00 -0.3088853E+01  0.2067499E+06 -0.7779128E+00  0.1032298E+01  0.2792099E+01  0.8158885E+06 -0.1441688E+01  0.1233858E-06  0.1407410E+01
  0.1560000E+01  0.4043064E+06 -0.1447974E+01  0.3235168E+00 -0.2814854E+01  0.2012828E+06 -0.8048732E+00  0.3688329E+00 -0.3104393E+01  0.8083602E+06 -0.1447974E+01  0.6950555E-07 -0.2429595E+01
  0.1580000E+01  0.4002297E+06 -0.1455288E+01  0.2091702E+00 -0.2755210E+01  0.1958091E+06 -0.8323255E+00  0.3880870E+00 -0.2309685E+00  0.8002087E+06 -0.1455288E+01  0.1341440E-06 -0.1411834E+01
  0.1600000E+01  0.3958761E+06 -0.1463641E+01  0.8618442E-01  0.2889140E+01  0.1906512E+06 -0.8602764E+00  0.4435143E+00 -0.2806471E+01  0.7915042E+06 -0.1463640E+01  0.1048172E-06 -0.1868381E+01
  0.1620000E+01  0.3912715E+06 -0.1473038E+01  0.1236939E+00 -0.1419816E+01  0.1855161E+06 -0.8887511E+00  0.2683050E+00 -0.5230700E+00  0.7822980E+06 -0.1473038E+01  0.5905388E-07 -0.2153637E+01
  0.1640000E+01  0.3864596E+06 -0.1483483E+01  0.3934228E-01  0.2355973E+01  0.1805214E+06 -0.9175696E+00  0.4630747E+00 -0.1388007E+00  0.7726769E+06 -0.1483483E+01  0.2821077E-06 -0.1585059E+01
  0.1660000E+01  0.3814570E+06 -0.1494979E+01  0.2871912E+00 -0.2794745E+01  0.1756610E+06 -0.9469084E+00  0.5400093E+00 -0.1915886E+00  0.7626755E+06 -0.1494979E+01  0.9925876E-07 -0.1704997E+01
  0.1680000E+01  0.3762918E+06 -0.1507522E+01  0.2268903E+00 -0.3030488E+01  0.1708111E+06 -0.9767876E+00  0.2472658E+00 -0.2861622E+01  0.7523480E+06 -0.1507522E+01  0.6979938E-07 -0.1754898E+01
  0.1700000E+01  0.3709938E+06 -0.1521109E+01  0.2592082E+00  0.3261053E+00  0.1661553E+06 -0.1007108E+01  0.1291414E+00 -0.1029867E+01  0.7417526E+06 -0.1521109E+01  0.1419351E-07 -0.2493498E+01
  0.1720000E+01  0.3655823E+06 -0.1535731E+01  0.3072774E+00 -0.1904662E+00  0.1617068E+06 -0.1037941E+01  0.1033998E+01  0.3128376E+01  0.7309344E+06 -0.1535731E+01  0.1803076E-07 -0.1564599E+01
  0.1740000E+01  0.3600825E+06 -0.1551380E+01  0.4345460E+00 -0.2991000E+01  0.1572258E+06 -0.1069306E+01  0.6179789E+00  0.2804599E+01  0.7199374E+06 -0.1551380E+01  0.3091517E-07  0.1231278E+01
  0.1760000E+01  0.3545143E+06 -0.1568046E+01  0.2084400E+00  0.2956661E+01  0.1529121E+06 -0.1101114E+01  0.3942643E+00 -0.2911285E+01  0.7088041E+06 -0.1568046E+01  0.8770969E-07 -0.1525275E+01
  0.1780000E+01  0.3488956E+06 -0.1585717E+01  0.2437947E+00 -0.3066552E+00  0.1487595E+06 -0.1133453E+01  0.4443385E+00  0.3026687E+00  0.6975712E+06 -0.1585718E+01  0.1454136E-06  0.1605997E+01
  0.1800000E+01  0.3432447E+06 -0.1604384E+01  0.2694932E+00 -0.2845356E+01  0.1445719E+06 -0.1166310E+01  0.2882033E+00 -0.5545472E-01  0.6862719E+06 -0.1604384E+01  0.4474288E-07 -0.1940287E+01
  0.1820000E+01  0.3375769E+06 -0.1624020E+01  0.2292066E+00 -0.3112851E+01  0.1405404E+06 -0.1199631E+01  0.1855417E+00  0.2029811E+00  0.6749413E+06 -0.1624021E+01  0.1890678E-07 -0.8226760E+00
  0.1840000E+01  0.3319046E+06 -0.1644622E+01  0.5683117E-01  0.2760258E+01  0.1367040E+06 -0.1233463E+01  0.1944767E-01 -0.6290163E+00  0.6636009E+06 -0.1644623E+01  0.1316926E-07 -0.9521911E+00
  0.1860000E+01  0.3262426E+06 -0.1666203E+01  0.1474117E+00  0.9568412E+00  0.1328382E+06 -0.1267906E+01  0.1607963E+00 -0.3009327E+01  0.6522800E+06 -0.1666205E+01  0.9484675E-07 -0.1657314E+01
  0.1880000E+01  0.3206021E+06 -0.1688687E+01  0.4750570E+00  0.1797800E-01  0.1291151E+06 -0.1302780E+01  0.3220370E+00  0.4319478E+00  0.6409996E+06 -0.1688689E+01  0.2877082E-06  0.1576105E+01
  0.1900000E+01  0.3149866E+06 -0.1712058E+01  0.9766195E-01 -0.2523172E+01  0.1255730E+06 -0.1338198E+01  0.5347250E+00 -0.3017180E+01  0.6297747E+06 -0.1712060E+01  0.1251875E-06  0.1415433E+01
  0.1920000E+01  0.3094126E+06 -0.1736361E+01  0.1327906E+00 -0.2876628E+01  0.1220365E+06 -0.1374194E+01  0.6260038E+00  0.1086731E+00  0.6186303E+06 -0.1736363E+01  0.5332477E-07 -0.2056315E+01
  0.1940000E+01  0.3038824E+06 -0.1761552E+01  0.1642199E+00  0.1703372E+00  0.1185063E+06 -0.1410677E+01  0.3782734E+00 -0.4490507E+00  0.6075725E+06 -0.1761555E+01  0.1309998E-06 -0.1398611E+01
  0.1960000E+01  0.2984078E+06 -0.1787614E+01  0.1213117E+00  0.3681810E+00  0.1151131E+06 -0.1447820E+01  0.2438353E+00  0.2088954E+01  0.5966269E+06 -0.1787617E+01  0.1399447E-06 -0.1634460E+01
  0.1980000E+01  0.2929949E+06 -0.1814529E+01  0.5596727E-01 -0.2462064E+00  0.1118008E+06 -0.1485635E+01  0.1029849E+00 -0.2720416E+00  0.5858036E+06 -0.1814534E+01  0.1606221E-06 -0.2028299E+01
  0.2000000E+01  0.2876346E+06 -0.1842304E+01  0.1201402E+00 -0.6474193E+00  0.1086138E+06 -0.1524280E+01  0.2850203E-01  0.1216662E+01  0.5750874E+06 -0.1842309E+01  0.2683518E-06 -0.1539557E+01
  0.2020000E+01  0.2823508E+06 -0.1870889E+01  0.1135235E+00 -0.6875830E+00  0.1054273E+06 -0.1563430E+01  0.4162934E+00 -0.2178417E+00  0.5645217E+06 -0.1870895E+01  0.1042596E-06  0.2233367E-01
  0.2040000E+01  0.2771387E+06 -0.1900285E+01  0.2201674E+00  0.8156886E-01  0.1022907E+06 -0.1603362E+01  0.3346139E+00 -0.2838023E+01  0.5541020E+06 -0.1900292E+01  0.1549585E-06  0.1633343E+01
  0.2060000E+01  0.2720014E+06 -0.1930480E+01  0.2929296E-01  0.3300747E+00  0.9919166E+05 -0.1644186E+01  0.1541727E+00 -0.1029988E+01  0.5438306E+06 -0.1930488E+01  0.6377628E-07  0.1207103E+01
  0.2080000E+01  0.2669418E+06 -0.1961460E+01  0.1834668E+00 -0.2865142E+00  0.9611288E+05 -0.1686057E+01  0.2337379E+00 -0.2874097E+01  0.5337138E+06 -0.1961469E+01  0.2178649E-06  0.8657680E+00
  0.2100000E+01  0.2619609E+06 -0.1993212E+01  0.5282541E-01  0.9565603E+00  0.9302611E+05 -0.1729215E+01  0.6446615E-01 -0.2619823E+01  0.5237557E+06 -0.1993222E+01  0.1014575E-06 -0.1486245E+01
  0.2120000E+01  0.2570608E+06 -0.2025724E+01  0.4006434E-01  0.2422860E+01  0.8989009E+05 -0.1774064E+01  0.1806629E+00  0.2985083E+01  0.5139587E+06 -0.2025735E+01  0.7150993E-07 -0.2509761E+01
  0.2140000E+01  0.2522425E+06 -0.2058984E+01  0.6849433E-01 -0.2067726E+01  0.8662945E+05 -0.1821321E+01  0.1759386E+00  0.2386395E+01  0.5043262E+06 -0.2058996E+01  0.1719659E-06 -0.1229633E+01
  0.2160000E+01  0.2475066E+06 -0.2092981E+01  0.5220852E-01  0.8290383E+00  0.8309605E+05 -0.1872381E+01  0.1722626E+00  0.6207512E-01  0.4948572E+06 -0.2092995E+01  0.2005566E-06 -0.1671269E+01
  0.2180000E+01  0.2428532E+06 -0.2127704E+01  0.1192209E+00  0.2845248E+01  0.7895415E+05 -0.1930418E+01  0.1287299E+00 -0.3386899E+00  0.4855544E+06 -0.2127719E+01  0.9848668E-07  0.1803046E+01
  0.2200000E+01  0.2382831E+06 -0.2163145E+01  0.9546153E-01  0.2077451E+00  0.7323522E+05 -0.2004448E+01  0.2030925E-01  0.2536275E+01  0.4764159E+06 -0.2163162E+01  0.1139663E-06 -0.2726936E+01
  0.2220000E+01  0.2337962E+06 -0.2199291E+01  0.6804256E-01  0.2678036E+00  0.6150444E+05 -0.2133857E+01  0.1879127E-01 -0.1643756E+01  0.4674475E+06 -0.2199307E+01  0.2161713E-06 -0.2734249E+01
  0.2240000E+01  0.2293924E+06 -0.2236135E+01  0.2615189E-01  0.2977349E+01  0.3623015E+05  0.1616174E+00  0.1248399E+00 -0.3139944E+01  0.4586412E+06 -0.2236154E+01  0.1504156E-06 -0.2981411E+01
  0.2260000E+01  0.2250694E+06 -0.2273668E+01  0.5648861E-01 -0.1886933E+00  0.9881340E+05 -0.1775305E+01  0.7845064E-01 -0.1024740E+01  0.4499991E+06 -0.2273688E+01  0.1453401E-06 -0.1026270E+01
  0.2280000E+01  0.2208285E+06 -0.2311883E+01  0.4423026E-02 -0.2343988E+01  0.8580539E+05 -0.1954210E+01  0.1105999E+00  0.1166278E-01  0.4415198E+06 -0.2311904E+01  0.1485941E-06  0.1005102E+01
  0.2300000E+01  0.2166673E+06 -0.2350773E+01  0.1186579E+00 -0.1045323E+01  0.8007242E+05 -0.2039663E+01  0.1603466E+00  0.3077323E+01  0.4332020E+06 -0.2350794E+01  0.1287359E-06  0.5506049E+00
  0.2320000E+01  0.2125861E+06 -0.2390332E+01  0.1203944E-01  0.1435542E+01  0.7624752E+05 -0.2104111E+01  0.1668100E+00  0.3091008E+01  0.4250432E+06 -0.2390353E+01  0.1661416E-06  0.2873064E+01
  0.2340000E+01  0.2085833E+06 -0.2430555E+01  0.7497602E-01  0.2630494E+01  0.7321684E+05 -0.2160768E+01  0.1193757E+00  0.9290392E+00  0.4170405E+06 -0.2430579E+01  0.3046816E-06 -0.1507419E+01
  0.2360000E+01  0.2046569E+06 -0.2471438E+01  0.3425977E-01 -0.6967301E+00  0.7060977E+05 -0.2213854E+01  0.1305844E-01  0.2215114E+01  0.4091907E+06 -0.2471461E+01  0.1468280E-06 -0.1839930E+01
  0.2380000E+01  0.2008068E+06 -0.2512976E+01  0.5730087E-01 -0.1494427E+01  0.6826423E+05 -0.2265126E+01  0.2220782E+00 -0.2230201E+01  0.4014933E+06 -0.2513003E+01  0.2884818E-07 -0.2914467E+01
  0.2400000E+01  0.1970302E+06 -0.2555174E+01  0.3554882E-01  0.1289918E+01  0.6610017E+05 -0.2315453E+01  0.5994943E-01 -0.1415393E+01  0.3939433E+06 -0.2555200E+01  0.1607401E-06  0.8294879E-01
  0.2420000E+01  0.1933248E+06 -0.2598024E+01  0.4458115E-01  0.1307124E+00  0.6407344E+05 -0.2365311E+01  0.8442100E-01 -0.2510331E+01  0.3865357E+06 -0.2598051E+01  0.2962432E-07  0.2271955E+01
  0.2440000E+01  0.1896889E+06 -0.2641535E+01  0.1389960E-01 -0.2347298E+01  0.6215602E+05 -0.2414974E+01  0.7859959E-01 -0.1428534E+01  0.3792663E+06 -0.2641562E+01  0.1100762E-06 -0.5722558E-01
  0.2460000E+01  0.1861204E+06 -0.2685707E+01  0.1188692E-01 -0.2153052E+01  0.6032962E+05 -0.2464624E+01  0.1286577E+00  0.1967467E+01  0.3721330E+06 -0.2685733E+01  0.1030705E-06  0.2967591E+01
  0.2480000E+01  0.1826178E+06 -0.2730553E+01  0.6923472E-01 -0.1439981E+01  0.5858212E+05 -0.2514373E+01  0.5898105E-01 -0.1122889E+01  0.3651298E+06 -0.2730578E+01  0.1091457E-06 -0.9881954E+00
  0.2500000E+01  0.1791777E+06 -0.2776085E+01  0.3058156E-01 -0.2161289E+01  0.5690442E+05 -0.2564305E+01  0.7629425E-01 -0.1693636E+01  0.3582516E+06 -0.2776111E+01  0.3111640E-06  0.3398529E+00
  0.2520000E+01  0.1757944E+06 -0.2822322E+01  0.1451419E-01 -0.2155791E+01  0.5529017E+05 -0.2614477E+01  0.5661104E-01 -0.4055923E+00  0.3514888E+06 -0.2822348E+01  0.1224653E-06 -0.3944168E+00
  0.2540000E+01  0.1724639E+06 -0.2869293E+01  0.4535332E-01 -0.1808994E+01  0.5373400E+05 -0.2664935E+01  0.1871983E-01 -0.1960079E+01  0.3448302E+06 -0.2869319E+01  0.6949212E-07  0.7565855E+00
  0.2560000E+01  0.1691810E+06 -0.2917040E+01  0.1085766E-01 -0.1235345E+01  0.5223152E+05 -0.2715713E+01  0.9822445E-01  0.1577697E+01  0.3382669E+06 -0.2917065E+01  0.1466842E-06  0.4004567E+00
  0.2580000E+01  0.1659389E+06 -0.2965626E+01  0.3622453E-01 -0.1076837E+01  0.5077929E+05 -0.2766839E+01  0.3522548E-02 -0.1172113E+01  0.3317857E+06 -0.2965649E+01  0.3165136E-06  0.5169226E-01
  0.2600000E+01  0.1627283E+06 -0.3015143E+01  0.3836946E-01 -0.1571336E+01  0.4937423E+05 -0.2818331E+01  0.3416801E-01 -0.7448250E+00  0.3253663E+06 -0.3015167E+01  0.2560798E-07 -0.8374535E-01
  0.2620000E+01  0.1595346E+06 -0.3065740E+01  0.3089616E-01 -0.2979462E+01  0.4801406E+05 -0.2870208E+01  0.6487778E-01  0.1210158E+01  0.3189813E+06 -0.3065761E+01  0.2869001E-07  0.6184382E+00
  0.2640000E+01  0.1563321E+06 -0.3117642E+01  0.2779441E-01  0.9913442E+00  0.4669683E+05 -0.2922481E+01  0.9162246E-01  0.2825952E+01  0.3125787E+06 -0.3117663E+01  0.1117160E-06  0.2636923E+01
  0.2660000E+01  0.1530862E+06  0.3111936E+01  0.2006252E-01  0.2736975E+01  0.4542040E+05 -0.2975159E+01  0.2641054E-01  0.1050160E+01  0.3060889E+06  0.3111915E+01  0.1301365E-06  0.1724668E+00
  0.2680000E+01  0.1497297E+06  0.3055885E+01  0.2946994E-01 -0.7044733E+00  0.4418309E+05 -0.3028251E+01  0.1344799E-01  0.1140413E+00  0.2993786E+06  0.3055864E+01  0.1453325E-06 -0.2616096E+00
  0.2700000E+01  0.1461127E+06  0.2995876E+01  0.2115862E-01  0.7596641E+00  0.4298340E+05 -0.3081762E+01  0.7190488E-01  0.4060302E+00  0.2921469E+06  0.2995856E+01  0.9900182E-07 -0.2613112E+01
  0.2720000E+01  0.1418760E+06  0.2928187E+01  0.1398821E-01 -0.1847380E+01  0.4181990E+05 -0.3135696E+01  0.6147625E-01 -0.1181330E+01  0.2836764E+06  0.2928169E+01  0.7546173E-07 -0.3054598E+01
  0.2740000E+01  0.1357898E+06  0.2840679E+01  0.2618326E-02 -0.4507801E-02  0.4069107E+05  0.3093128E+01  0.3244193E-01  0.1416142E+01  0.2715085E+06  0.2840661E+01  0.5520741E-07  0.2112228E+01
  0.2760000E+01  0.1194590E+06  0.2659217E+01  0.2545904E-01 -0.2174116E+01  0.3959577E+05  0.3038335E+01  0.5950718E-01 -0.1151140E+01  0.2388582E+06  0.2659199E+01  0.7041937E-07 -0.2928375E+01
  0.2780000E+01  0.1623711E+06 -0.2821246E+01  0.2509607E-01  0.2129733E+00  0.3853253E+05  0.2983119E+01  0.1465545E-01 -0.2876972E+01  0.3246438E+06 -0.2821258E+01  0.9528765E-07  0.2785899E+01
  0.2799999E+01  0.1478110E+06  0.2925849E+01  0.3452529E-01 -0.2222553E+01  0.3750059E+05  0.2927464E+01  0.6341325E-01  0.4001451E-01  0.2955404E+06  0.2925835E+01  0.3004363E-07  0.1026655E+01
  0.2819999E+01  0.1411519E+06  0.2810158E+01  0.6373673E-01 -0.2899403E+01  0.3649852E+05  0.2871372E+01  0.4253726E-01  0.1914281E+00  0.2822269E+06  0.2810144E+01  0.7323889E-07  0.6295255E+00
  0.2840000E+01  0.1369985E+06  0.2732289E+01  0.6362989E-01  0.3092441E+01  0.3552516E+05  0.2814840E+01  0.5188987E-01 -0.2719222E+01  0.2739226E+06  0.2732274E+01  0.1485709E-06  0.1721049E+00
  0.2860000E+01  0.1337038E+06  0.2665286E+01  0.1352100E-01  0.1231184E+01  0.3457960E+05  0.2757864E+01  0.1692128E-01  0.9124741E+00  0.2673352E+06  0.2665272E+01  0.5318372E-07  0.7470037E+00
  0.2880000E+01  0.1308199E+06  0.2602667E+01  0.3043118E-01  0.2931541E+01  0.3366078E+05  0.2700438E+01  0.2598007E-01 -0.1728242E+01  0.2615695E+06  0.2602654E+01  0.9801397E-07 -0.1144892E+01
  0.2900000E+01  0.1281742E+06  0.2542095E+01  0.2469748E-02 -0.1998396E+01  0.3276777E+05  0.2642565E+01  0.2956521E-01  0.3106196E+01  0.2562797E+06  0.2542081E+01  0.6385505E-07 -0.2448628E+01
  0.2920000E+01  0.1256880E+06  0.2482517E+01  0.1410269E-01  0.1157145E+00  0.3189968E+05  0.2584235E+01  0.1479338E-01  0.1457789E+00  0.2513085E+06  0.2482503E+01  0.3801707E-07 -0.1853513E+01
  0.2940000E+01  0.1233194E+06  0.2423396E+01  0.4177848E-02 -0.1171779E+01  0.3105543E+05  0.2525456E+01  0.3585186E-01  0.1241467E+00  0.2465728E+06  0.2423382E+01  0.1661610E-06 -0.1475236E+01
  0.2960000E+01  0.1210463E+06  0.2364431E+01  0.9728032E-03 -0.3592248E+00  0.3023387E+05  0.2466215E+01  0.2236286E-02  0.2898233E+01  0.2420280E+06  0.2364416E+01  0.1635708E-06  0.1626538E+01
  0.2980000E+01  0.1188508E+06  0.2305432E+01  0.8129521E-02 -0.8956861E-01  0.2943385E+05  0.2406522E+01  0.7991512E-01 -0.3128176E+01  0.2376380E+06  0.2305416E+01  0.1007173E-06  0.1622486E+01
  0.3000000E+01  0.1167217E+06  0.2246279E+01  0.3790808E-02 -0.2486871E+01  0.2865462E+05  0.2346355E+01  0.1083559E+00 -0.3122775E+01  0.2333811E+06  0.2246262E+01  0.3527691E-07 -0.9140947E+00
  0.3020000E+01  0.1146535E+06  0.2186893E+01  0.2452120E-01 -0.3106234E+01  0.2789474E+05  0.2285724E+01  0.2904766E-01 -0.2680347E+00  0.2292457E+06  0.2186876E+01  0.4050467E-07 -0.1254935E+01