VARIABLES="w (rad/s)"  
"abs(F   1   1)" "angle(F   1   1)"
"abs(F   1   2)" "angle(F   1   2)"
"abs(F   1   3)" "angle(F   1   3)"
"abs(F   1   4)" "angle(F   1   4)"
"abs(F   1   5)" "angle(F   1   5)"
"abs(F   1   6)" "angle(F   1   6)"
Zone t="Excitation force - beta =   0.000 deg",I=   420,F=POINT
  0.2000000E-01  0.3496435E+04 -0.1570795E+01  0.8041716E+00  0.3141591E+01  0.7697504E+06 -0.1620790E-04  0.1005588E+01  0.2263061E-04  0.6990892E+04 -0.1570797E+01  0.8040089E-08  0.2757335E+01
  0.4000000E-01  0.6998915E+04 -0.1570793E+01  0.8480597E+00  0.3141552E+01  0.7691565E+06 -0.6491659E-04  0.9780214E-01  0.8428450E-03  0.1399388E+05 -0.1570795E+01  0.1908263E-07 -0.2920542E+01
  0.5999999E-01  0.1051160E+05 -0.1570790E+01  0.4674501E+00 -0.3141581E+01  0.7681654E+06 -0.1471081E-03  0.4253059E+00 -0.3860724E-03  0.2101729E+05 -0.1570789E+01  0.4104731E-07  0.3080692E+01
  0.8000000E-01  0.1404147E+05 -0.1570783E+01  0.8221973E+00  0.1305376E-03  0.7668034E+06 -0.2634692E-03  0.1339821E+01  0.1639436E-04  0.2807506E+05 -0.1570783E+01  0.1488051E-07  0.1877712E-01
  0.9999999E-01  0.1759407E+05 -0.1570775E+01  0.3330086E+00 -0.5346020E-03  0.7650666E+06 -0.4158387E-03  0.1196641E+01  0.3179670E-03  0.3517820E+05 -0.1570775E+01  0.7614782E-08 -0.5812735E-01
  0.1200000E+00  0.2117534E+05 -0.1570765E+01  0.1092464E+00  0.4251302E-04  0.7629571E+06 -0.6062422E-03  0.1200397E+01 -0.3141073E+01  0.4233879E+05 -0.1570765E+01  0.2186894E-07  0.2587643E+01
  0.1400000E+00  0.2479136E+05 -0.1570753E+01  0.2682686E+00  0.3141186E+01  0.7604808E+06 -0.8373467E-03  0.9570443E-01 -0.3137126E+01  0.4956882E+05 -0.1570753E+01  0.1508299E-07 -0.3026180E+01
  0.1600000E+00  0.2844856E+05 -0.1570737E+01  0.6966310E+00  0.3141190E+01  0.7576311E+06 -0.1112425E-02  0.3040565E+00  0.3140297E+01  0.5688108E+05 -0.1570737E+01  0.1735713E-07 -0.1791502E+01
  0.1800000E+00  0.3215425E+05 -0.1570720E+01  0.2015098E+00  0.3138402E+01  0.7544160E+06 -0.1435414E-02  0.3842304E+00  0.4582329E-02  0.6429035E+05 -0.1570720E+01  0.9606899E-08 -0.6514990E+00
  0.2000000E+00  0.3591481E+05 -0.1570698E+01  0.4513745E+00  0.3141523E+01  0.7508322E+06 -0.1811063E-02  0.1026163E+01 -0.9720175E-03  0.7180941E+05 -0.1570698E+01  0.6739683E-07  0.6848302E+00
  0.2200000E+00  0.3973889E+05 -0.1570673E+01  0.6265249E-03  0.2560770E+01  0.7468873E+06 -0.2244881E-02  0.7935660E+00 -0.8634391E-03  0.7945525E+05 -0.1570673E+01  0.3436125E-08  0.1390942E+01
  0.2400000E+00  0.4363362E+05 -0.1570643E+01  0.1364331E+00  0.7240218E-02  0.7425626E+06 -0.2743543E-02  0.7469540E+00  0.3139903E+01  0.8724241E+05 -0.1570644E+01  0.4869130E-07 -0.3017522E+01
  0.2600000E+00  0.4760830E+05 -0.1570608E+01  0.7443720E+00  0.6576937E-03  0.7378840E+06 -0.3314565E-02  0.7449529E+00  0.3914921E-03  0.9518954E+05 -0.1570608E+01  0.3238837E-07  0.2064733E+01
  0.2800000E+00  0.5167222E+05 -0.1570566E+01  0.2444320E+00 -0.1951210E-02  0.7328356E+06 -0.3966967E-02  0.1726539E+01  0.3141040E+01  0.1033152E+06 -0.1570567E+01  0.1548337E-07 -0.1774916E+01
  0.3000000E+00  0.5583396E+05 -0.1570517E+01  0.2475080E+00 -0.1164505E-02  0.7274191E+06 -0.4711310E-02  0.1109703E+01 -0.3876273E-02  0.1116362E+06 -0.1570517E+01  0.1769568E-07  0.1578691E+01
  0.3200000E+00  0.6010660E+05 -0.1570459E+01  0.1457247E+00  0.3130133E+01  0.7216442E+06 -0.5558714E-02  0.7896089E+00  0.5381391E-03  0.1201793E+06 -0.1570459E+01  0.2099189E-07  0.3766343E+00
  0.3400000E+00  0.6450037E+05 -0.1570390E+01  0.4473959E+00 -0.3140819E+01  0.7155116E+06 -0.6523748E-02  0.1625408E+00 -0.1509054E-01  0.1289641E+06 -0.1570390E+01  0.1818947E-07 -0.2188355E+00
  0.3600000E+00  0.6902652E+05 -0.1570308E+01  0.1884653E+00  0.1219870E-01  0.7090144E+06 -0.7622033E-02  0.3590791E-01  0.6948564E-01  0.1380139E+06 -0.1570308E+01  0.4207296E-07  0.2506238E+01
  0.3800000E+00  0.7369828E+05 -0.1570211E+01  0.2454599E+00  0.3136203E+01  0.7021632E+06 -0.8870338E-02  0.6732152E+00 -0.3373517E-02  0.1473547E+06 -0.1570211E+01  0.4056232E-07  0.1441514E+01
  0.4000000E+00  0.7853030E+05 -0.1570096E+01  0.5946572E+00 -0.3140265E+01  0.6949656E+06 -0.1028895E-01  0.1180279E+00 -0.6426466E-01  0.1570156E+06 -0.1570096E+01  0.2958855E-07 -0.1910962E+01
  0.4200000E+00  0.8353499E+05 -0.1569959E+01  0.3625871E+00 -0.1017071E-01  0.6874220E+06 -0.1190275E-01  0.2306064E+00  0.3089295E+01  0.1670222E+06 -0.1569959E+01  0.2900187E-07 -0.1378779E+00
  0.4400000E+00  0.8872782E+05 -0.1569796E+01  0.1926524E+00 -0.2588728E-02  0.6795527E+06 -0.1373334E-01  0.8515441E+00  0.7489031E-02  0.1774048E+06 -0.1569796E+01  0.2177594E-07 -0.8489479E+00
  0.4600000E+00  0.9412420E+05 -0.1569602E+01  0.5759737E-01 -0.3134984E+01  0.6713436E+06 -0.1580565E-01  0.7273228E+00  0.3118886E+01  0.1881944E+06 -0.1569602E+01  0.4825492E-07 -0.1636948E+01
  0.4800000E+00  0.9973866E+05 -0.1569369E+01  0.5461814E-01 -0.8093357E-01  0.6628354E+06 -0.1815444E-01  0.9149159E+00  0.3140284E+01  0.1994202E+06 -0.1569369E+01  0.6199914E-07 -0.2049761E+01
  0.5000000E+00  0.1055850E+06 -0.1569093E+01  0.3670061E+00  0.1850579E-01  0.6540488E+06 -0.2080901E-01  0.2928337E+00 -0.2761227E-01  0.2111094E+06 -0.1569093E+01  0.4565990E-07  0.1603947E+01
  0.5200000E+00  0.1116780E+06 -0.1568763E+01  0.1986958E+00 -0.3089195E+01  0.6449716E+06 -0.2379378E-01  0.1330659E-01 -0.1476042E+01  0.2232915E+06 -0.1568763E+01  0.7551738E-07  0.1380343E+01
  0.5399999E+00  0.1180307E+06 -0.1568372E+01  0.2392700E+00  0.3110823E+01  0.6356754E+06 -0.2713689E-01  0.1413836E-01  0.2913034E+01  0.2359931E+06 -0.1568372E+01  0.2065905E-07  0.2866760E+01
  0.5599999E+00  0.1246527E+06 -0.1567908E+01  0.3629063E-02  0.1693452E+01  0.6261424E+06 -0.3088469E-01  0.6504009E+00  0.7237098E-02  0.2492336E+06 -0.1567908E+01  0.5807466E-07 -0.1487309E+01
  0.5799999E+00  0.1315518E+06 -0.1567360E+01  0.4149766E-01  0.3053001E+01  0.6164059E+06 -0.3505371E-01  0.5486475E+00  0.3138430E+01  0.2630276E+06 -0.1567359E+01  0.1286193E-06 -0.1882242E+01
  0.5999999E+00  0.1387338E+06 -0.1566716E+01  0.1667307E+00 -0.5784388E-01  0.6065294E+06 -0.3965445E-01  0.9139627E+00  0.2698375E-01  0.2773872E+06 -0.1566716E+01  0.2346139E-07  0.2528265E+01
  0.6199999E+00  0.1462015E+06 -0.1565963E+01  0.5934925E-01  0.5851211E-01  0.5964819E+06 -0.4470536E-01  0.5257504E+00  0.9789780E-03  0.2923185E+06 -0.1565963E+01  0.1713799E-06  0.1615970E+01
  0.6399999E+00  0.1539511E+06 -0.1565085E+01  0.1861402E+00 -0.3864143E-01  0.5863444E+06 -0.5025201E-01  0.3335325E+00 -0.6045160E-01  0.3078125E+06 -0.1565085E+01  0.2523653E-07  0.1932936E+01
  0.6599999E+00  0.1619756E+06 -0.1564071E+01  0.3355745E-01 -0.3679607E+00  0.5761626E+06 -0.5627802E-01  0.6201376E+00 -0.1793833E-01  0.3238569E+06 -0.1564071E+01  0.5147260E-07  0.1528988E+01
  0.6799999E+00  0.1702662E+06 -0.1562907E+01  0.1472443E+00 -0.8518285E-01  0.5659362E+06 -0.6276651E-01  0.2297319E+00 -0.3134349E+01  0.3404328E+06 -0.1562907E+01  0.6964350E-07 -0.1668841E+01
  0.6999999E+00  0.1788093E+06 -0.1561582E+01  0.4614952E+00 -0.6662819E-02  0.5556761E+06 -0.6971397E-01  0.8299388E+00  0.3133798E+01  0.3575142E+06 -0.1561582E+01  0.3307402E-07  0.1418147E+01
  0.7199998E+00  0.1875872E+06 -0.1560076E+01  0.1811605E+00 -0.7382011E-01  0.5453939E+06 -0.7717491E-01  0.8281476E+00  0.3440383E-01  0.3750644E+06 -0.1560076E+01  0.1331201E-07  0.4736601E+00
  0.7399999E+00  0.1965788E+06 -0.1558380E+01  0.3070573E+00 -0.6534841E-01  0.5351563E+06 -0.8510979E-01  0.1061528E+00 -0.6719828E-01  0.3930424E+06 -0.1558380E+01  0.3900614E-07  0.6325178E+00
  0.7599999E+00  0.2057632E+06 -0.1556485E+01  0.7348303E+00  0.3125983E+01  0.5249253E+06 -0.9348267E-01  0.4863509E+00  0.8255441E-01  0.4114054E+06 -0.1556485E+01  0.7200861E-07 -0.1761292E+01
  0.7799999E+00  0.2151163E+06 -0.1554383E+01  0.1683469E-01 -0.5493302E+00  0.5147123E+06 -0.1022697E+00  0.7661978E+00  0.3119391E+01  0.4301056E+06 -0.1554383E+01  0.5611787E-08 -0.2374972E+01
  0.8000000E+00  0.2246150E+06 -0.1552055E+01  0.1515393E+00  0.3087009E+01  0.5045881E+06 -0.1115385E+00  0.1063744E+01  0.7377602E-01  0.4490973E+06 -0.1552055E+01  0.2333270E-06  0.1484473E+01
  0.8199999E+00  0.2342294E+06 -0.1549492E+01  0.5514129E-01  0.2763704E+01  0.4944949E+06 -0.1212891E+00  0.9418820E+00  0.3115652E+01  0.4683199E+06 -0.1549492E+01  0.5024843E-07 -0.1148771E+01
  0.8399999E+00  0.2439333E+06 -0.1546691E+01  0.3070784E+00 -0.3140990E+01  0.4844801E+06 -0.1314693E+00  0.1953701E+01  0.1639691E-01  0.4877223E+06 -0.1546691E+01  0.3993072E-07  0.1091294E+01
  0.8599999E+00  0.2537007E+06 -0.1543648E+01  0.5016592E+00 -0.3050996E+01  0.4745071E+06 -0.1420596E+00  0.4841412E+00  0.9969655E-01  0.5072505E+06 -0.1543648E+01  0.1449766E-06  0.1426073E+01
  0.8799999E+00  0.2635018E+06 -0.1540362E+01  0.2294775E+00  0.2988688E+01  0.4646321E+06 -0.1530530E+00  0.1672467E+01 -0.4549658E-01  0.5268472E+06 -0.1540362E+01  0.6473956E-07  0.1601874E+01
  0.8999999E+00  0.2733093E+06 -0.1536812E+01  0.1743831E+00  0.9279227E-01  0.4548234E+06 -0.1645491E+00  0.5568840E+00  0.6676520E-01  0.5464550E+06 -0.1536812E+01  0.1702008E-06 -0.1727939E+01
  0.9199999E+00  0.2830879E+06 -0.1533003E+01  0.5850263E+00  0.3979300E-01  0.4451736E+06 -0.1765228E+00  0.2984157E+00  0.1547020E+00  0.5660068E+06 -0.1533003E+01  0.9916193E-07 -0.1504441E+01
  0.9399999E+00  0.2928078E+06 -0.1528939E+01  0.2074304E+00  0.1971898E+00  0.4355645E+06 -0.1889359E+00  0.5239040E+00 -0.3076792E+01  0.5854408E+06 -0.1528939E+01  0.9748887E-07 -0.1772295E+01
  0.9599999E+00  0.3024386E+06 -0.1524632E+01  0.3959875E+00  0.4053081E-01  0.4260178E+06 -0.2017760E+00  0.4500369E+00  0.9547219E-01  0.6046963E+06 -0.1524632E+01  0.2014032E-06 -0.1497855E+01
  0.9799999E+00  0.3119449E+06 -0.1520088E+01  0.5291073E+00  0.2001113E-01  0.4166003E+06 -0.2150341E+00  0.2287778E+00  0.3888464E-01  0.6237027E+06 -0.1520088E+01  0.1099702E-07  0.7170758E+00
  0.9999999E+00  0.3212926E+06 -0.1515308E+01  0.6254879E+00 -0.4968565E-01  0.4072636E+06 -0.2287664E+00  0.4200179E+00  0.3021336E+01  0.6423928E+06 -0.1515308E+01  0.1542794E-06 -0.1333138E+01
  0.1020000E+01  0.3304414E+06 -0.1510306E+01  0.1570998E+00  0.2579507E-01  0.3980931E+06 -0.2430099E+00  0.1000569E+01 -0.6361784E-02  0.6606832E+06 -0.1510305E+01  0.1013578E-06  0.1736579E+01
  0.1040000E+01  0.3393629E+06 -0.1505104E+01  0.5404639E+00  0.6434345E-01  0.3891015E+06 -0.2577077E+00  0.8374053E+00 -0.3070539E+01  0.6785214E+06 -0.1505104E+01  0.1884083E-06 -0.1312677E+01
  0.1060000E+01  0.3479948E+06 -0.1499745E+01  0.3604467E+00  0.3008590E+01  0.3801563E+06 -0.2728759E+00  0.7795468E-01 -0.3060333E+01  0.6957804E+06 -0.1499745E+01  0.1052981E-07  0.2518259E+01
  0.1080000E+01  0.3563280E+06 -0.1494234E+01  0.2435634E+00 -0.2816170E+01  0.3713392E+06 -0.2884878E+00  0.4062475E-01  0.1688878E+01  0.7124401E+06 -0.1494234E+01  0.6058914E-07 -0.2138846E+01
  0.1100000E+01  0.3643090E+06 -0.1488579E+01  0.7450727E+00  0.3110927E+01  0.3626785E+06 -0.3045763E+00  0.2858326E+00 -0.2713774E+01  0.7283972E+06 -0.1488579E+01  0.1964939E-07 -0.5209092E+00
  0.1120000E+01  0.3719161E+06 -0.1482886E+01  0.9765411E-01  0.1838815E-01  0.3540332E+06 -0.3210990E+00  0.1572533E+00  0.2302114E+01  0.7436060E+06 -0.1482886E+01  0.5810249E-07 -0.1241746E+01
  0.1140000E+01  0.3790942E+06 -0.1477140E+01  0.1998558E+00 -0.2916060E+01  0.3456034E+06 -0.3381367E+00  0.5468109E+00  0.2917903E+01  0.7579572E+06 -0.1477140E+01  0.1271101E-06  0.1501942E+01
  0.1160000E+01  0.3858207E+06 -0.1471420E+01  0.7114369E-01  0.2682924E+01  0.3373341E+06 -0.3556304E+00  0.9066131E+00 -0.3138277E+01  0.7714068E+06 -0.1471419E+01  0.3088982E-07 -0.1119014E+01
  0.1180000E+01  0.3920476E+06 -0.1465756E+01  0.4305873E+00 -0.1250573E+00  0.3292553E+06 -0.3736176E+00  0.6771976E+00 -0.3068132E+01  0.7838554E+06 -0.1465756E+01  0.3125418E-07  0.1302688E+01
  0.1200000E+01  0.3977728E+06 -0.1460213E+01  0.1132542E+01  0.3133872E+01  0.3212096E+06 -0.3920361E+00  0.1933981E+00  0.4459546E+00  0.7953033E+06 -0.1460213E+01  0.1487399E-06 -0.1698879E+01
  0.1220000E+01  0.4029446E+06 -0.1454848E+01  0.5466961E+00 -0.3023569E+01  0.3133400E+06 -0.4109400E+00  0.7740644E+00 -0.2926790E+01  0.8056448E+06 -0.1454848E+01  0.3393810E-06 -0.1528386E+01
  0.1240000E+01  0.4075447E+06 -0.1449722E+01  0.1439043E+00  0.7123148E-01  0.3055926E+06 -0.4303319E+00  0.8091292E+00 -0.3526805E-01  0.8148389E+06 -0.1449722E+01  0.1131771E-06  0.1368301E+01
  0.1260000E+01  0.4115533E+06 -0.1444891E+01  0.2573630E+00 -0.3107193E+01  0.2980350E+06 -0.4502065E+00  0.7230387E+00 -0.2812402E+01  0.8228536E+06 -0.1444891E+01  0.2624687E-07  0.1781345E+01
  0.1280000E+01  0.4149852E+06 -0.1440421E+01  0.2364033E+00  0.3834623E+00  0.2906158E+06 -0.4705127E+00  0.1113187E+00 -0.1568917E+01  0.8297151E+06 -0.1440421E+01  0.2466709E-06  0.1549349E+01
  0.1300000E+01  0.4178218E+06 -0.1436378E+01  0.1776795E-01 -0.3801827E+00  0.2833635E+06 -0.4912546E+00  0.2945855E+00  0.9653265E-01  0.8353867E+06 -0.1436378E+01  0.1419969E-06 -0.1743493E+01
  0.1320000E+01  0.4200218E+06 -0.1432820E+01  0.3729220E+00  0.3314689E+00  0.2762066E+06 -0.5125561E+00  0.8363877E+00 -0.3108737E+01  0.8397851E+06 -0.1432820E+01  0.2491099E-06 -0.1637767E+01
  0.1340000E+01  0.4216267E+06 -0.1429820E+01  0.3607595E+00 -0.2941979E+01  0.2691447E+06 -0.5343007E+00  0.2500983E+00  0.5852500E+00  0.8429926E+06 -0.1429820E+01  0.9646236E-07  0.1512545E+01
  0.1360000E+01  0.4226340E+06 -0.1427431E+01  0.3273631E+00  0.2878744E+01  0.2622718E+06 -0.5565195E+00  0.4519875E-01 -0.2395734E+01  0.8450071E+06 -0.1427431E+01  0.3131864E-06 -0.1515100E+01
  0.1380000E+01  0.4230730E+06 -0.1425706E+01  0.5483986E+00 -0.1580889E+00  0.2555567E+06 -0.5791228E+00  0.1029860E+01  0.2892288E+00  0.8458840E+06 -0.1425706E+01  0.4713935E-06 -0.1478917E+01
  0.1400000E+01  0.4229206E+06 -0.1424713E+01  0.1633124E+00 -0.1219876E+01  0.2490124E+06 -0.6023003E+00  0.2526454E+00  0.1613294E+01  0.8455796E+06 -0.1424712E+01  0.2443546E-07 -0.2160913E+01
  0.1420000E+01  0.4222231E+06 -0.1424494E+01  0.9021590E-01  0.4818586E+00  0.2424897E+06 -0.6259220E+00  0.3068867E-01  0.1678602E+01  0.8441846E+06 -0.1424494E+01  0.3884743E-06 -0.1580841E+01
  0.1440000E+01  0.4209978E+06 -0.1425099E+01  0.6639655E+00  0.3000743E+01  0.2362342E+06 -0.6500137E+00  0.3334119E+00 -0.1066630E-01  0.8417364E+06 -0.1425098E+01  0.1866747E-06 -0.1615513E+01
  0.1460000E+01  0.4192691E+06 -0.1426571E+01  0.1955067E+00 -0.4085176E+00  0.2300490E+06 -0.6746131E+00  0.4634566E+00  0.1947023E+00  0.8382768E+06 -0.1426571E+01  0.1973482E-06 -0.1492993E+01
  0.1480000E+01  0.4170717E+06 -0.1428948E+01  0.1276738E+00  0.2345349E+01  0.2240538E+06 -0.6996735E+00  0.2210815E+00  0.2866559E+01  0.8338845E+06 -0.1428948E+01  0.2642508E-06 -0.1702496E+01
  0.1500000E+01  0.4144422E+06 -0.1432261E+01  0.3266985E+00  0.3009632E+00  0.2181363E+06 -0.7251606E+00  0.6587749E-02  0.3979546E+00  0.8286253E+06 -0.1432261E+01  0.3461420E-06  0.1420909E+01
  0.1520000E+01  0.4113973E+06 -0.1436543E+01  0.6993140E-01  0.2460609E+01  0.2123732E+06 -0.7511669E+00  0.1092775E+01  0.3084820E+01  0.8225393E+06 -0.1436542E+01  0.8041845E-07 -0.1282048E+00
  0.1540000E+01  0.4079792E+06 -0.1441816E+01  0.8467808E-01 -0.2923667E+01  0.2067587E+06 -0.7776386E+00  0.8818747E+00 -0.3113210E+01  0.8157046E+06 -0.1441815E+01  0.2307545E-06  0.1561514E+01
  0.1560000E+01  0.4042194E+06 -0.1448099E+01  0.2622599E+00  0.3061509E+01  0.2012908E+06 -0.8045796E+00  0.3425043E+00 -0.3040978E+01  0.8081863E+06 -0.1448098E+01  0.1078390E-06 -0.1287016E+01
  0.1580000E+01  0.4001482E+06 -0.1455408E+01  0.1994071E+00 -0.3082181E+01  0.1958166E+06 -0.8320095E+00  0.4083761E+00 -0.4150922E+00  0.8000457E+06 -0.1455408E+01  0.1286483E-06 -0.1251655E+01
  0.1600000E+01  0.3957991E+06 -0.1463756E+01  0.3096270E-01  0.2631842E+00  0.1906579E+06 -0.8599391E+00  0.4538706E+00 -0.3013774E+01  0.7913503E+06 -0.1463755E+01  0.8830526E-07 -0.1589781E+01
  0.1620000E+01  0.3911986E+06 -0.1473148E+01  0.8054234E-01 -0.1293879E+01  0.1855230E+06 -0.8883905E+00  0.1877458E+00  0.5300886E+00  0.7821521E+06 -0.1473148E+01  0.1007003E-06 -0.1526482E+01
  0.1640000E+01  0.3863907E+06 -0.1483586E+01  0.1083679E+00  0.1979470E+01  0.1805278E+06 -0.9171839E+00  0.5318749E+00  0.2129516E+00  0.7725392E+06 -0.1483586E+01  0.2958433E-06 -0.1581815E+01
  0.1660000E+01  0.3813930E+06 -0.1495075E+01  0.2545501E+00 -0.2897428E+01  0.1756662E+06 -0.9464934E+00  0.5349048E+00 -0.3068717E+00  0.7625476E+06 -0.1495075E+01  0.1087996E-06 -0.1794182E+01
  0.1680000E+01  0.3762329E+06 -0.1507610E+01  0.2249310E+00 -0.3074404E+01  0.1708156E+06 -0.9763467E+00  0.3386051E+00  0.2175794E+01  0.7522303E+06 -0.1507610E+01  0.7375252E-07 -0.2134000E+01
  0.1700000E+01  0.3709401E+06 -0.1521188E+01  0.1830847E+00 -0.2953891E+00  0.1661586E+06 -0.1006634E+01  0.1476426E+00  0.3750592E-01  0.7416454E+06 -0.1521188E+01  0.2027274E-07 -0.1819118E+01
  0.1720000E+01  0.3655338E+06 -0.1535801E+01  0.2482653E+00 -0.1095090E+00  0.1617094E+06 -0.1037435E+01  0.9027930E+00 -0.3137614E+01  0.7308374E+06 -0.1535801E+01  0.5311527E-07 -0.1230415E+01
  0.1740000E+01  0.3600388E+06 -0.1551440E+01  0.3447018E+00  0.3058312E+01  0.1572281E+06 -0.1068763E+01  0.7007856E+00  0.2768393E+01  0.7198501E+06 -0.1551440E+01  0.2529268E-07  0.1288122E+01
  0.1760000E+01  0.3544755E+06 -0.1568094E+01  0.1652953E+00 -0.2787423E+01  0.1529128E+06 -0.1100530E+01  0.4825722E+00  0.2804179E+01  0.7087265E+06 -0.1568094E+01  0.6643018E-07 -0.1510677E+01
  0.1780000E+01  0.3488615E+06 -0.1585752E+01  0.3218640E+00  0.1950294E+00  0.1487590E+06 -0.1132824E+01  0.2781196E+00  0.4051194E+00  0.6975030E+06 -0.1585752E+01  0.1205540E-06  0.1530729E+01
  0.1800000E+01  0.3432150E+06 -0.1604405E+01  0.2590207E+00 -0.2832731E+01  0.1445705E+06 -0.1165638E+01  0.4027447E+00  0.7650785E-01  0.6862126E+06 -0.1604406E+01  0.2652819E-07 -0.1225175E+01
  0.1820000E+01  0.3375514E+06 -0.1624028E+01  0.2126181E+00  0.3049711E+01  0.1405387E+06 -0.1198908E+01  0.2911042E+00  0.6974096E+00  0.6748903E+06 -0.1624029E+01  0.3091274E-07  0.2677051E+00
  0.1840000E+01  0.3318832E+06 -0.1644615E+01  0.8210923E-01 -0.9155647E+00  0.1367009E+06 -0.1232684E+01  0.4482795E-01  0.7932537E+00  0.6635581E+06 -0.1644616E+01  0.1427194E-07 -0.6837093E+00
  0.1860000E+01  0.3262255E+06 -0.1666179E+01  0.7686348E-01  0.7538733E+00  0.1328334E+06 -0.1267065E+01  0.2847653E+00  0.2640103E+01  0.6522459E+06 -0.1666180E+01  0.1639873E-06 -0.1620795E+01
  0.1880000E+01  0.3205896E+06 -0.1688646E+01  0.4879297E+00  0.2057427E-01  0.1291094E+06 -0.1301873E+01  0.2432847E+00 -0.1097985E+00  0.6409747E+06 -0.1688648E+01  0.3206256E-06  0.1477128E+01
  0.1900000E+01  0.3149782E+06 -0.1711997E+01  0.5999246E-01 -0.2288141E+01  0.1255652E+06 -0.1337212E+01  0.3641382E+00 -0.2769267E+01  0.6297581E+06 -0.1712000E+01  0.1544031E-06  0.1479591E+01
  0.1920000E+01  0.3094086E+06 -0.1736281E+01  0.1226329E+00 -0.2487501E+01  0.1220269E+06 -0.1373123E+01  0.5974060E+00  0.3444908E-01  0.6186222E+06 -0.1736284E+01  0.2227873E-07 -0.1150535E+01
  0.1940000E+01  0.3038829E+06 -0.1761451E+01  0.2393154E+00 -0.4342391E-01  0.1184957E+06 -0.1409512E+01  0.4556643E+00  0.7027028E+00  0.6075735E+06 -0.1761454E+01  0.1363570E-06 -0.1973500E+01
  0.1960000E+01  0.2984123E+06 -0.1787491E+01  0.1416772E+00 -0.5222645E+00  0.1151002E+06 -0.1446545E+01  0.1334997E+00 -0.1676154E+01  0.5966358E+06 -0.1787494E+01  0.2272759E-06 -0.1481346E+01
  0.1980000E+01  0.2930031E+06 -0.1814382E+01  0.7256379E-01 -0.4049520E+00  0.1117848E+06 -0.1484231E+01  0.2730994E+00 -0.7080006E+00  0.5858199E+06 -0.1814386E+01  0.1385749E-06 -0.1563807E+01
  0.2000000E+01  0.2876657E+06 -0.1842112E+01  0.7405091E-01  0.1341855E+00  0.1086179E+06 -0.1522140E+01  0.1073503E+00  0.1151978E+01  0.5751492E+06 -0.1842116E+01  0.1961755E-06 -0.1267062E+01
  0.2020000E+01  0.2823897E+06 -0.1870661E+01  0.9210600E-01 -0.1111633E+00  0.1054308E+06 -0.1561058E+01  0.3562525E+00 -0.6540106E+00  0.5645996E+06 -0.1870667E+01  0.3355015E-07 -0.1660300E+01
  0.2040000E+01  0.2771858E+06 -0.1900019E+01  0.1879233E+00  0.1829213E+00  0.1022939E+06 -0.1600725E+01  0.3598132E+00 -0.2929530E+01  0.5541962E+06 -0.1900025E+01  0.2518584E-06  0.1176694E+01
  0.2060000E+01  0.2720565E+06 -0.1930173E+01  0.4003401E-01  0.1083336E+01  0.9919414E+05 -0.1641219E+01  0.5426748E-01  0.2294254E+01  0.5439409E+06 -0.1930181E+01  0.8954180E-07  0.2065893E+01
  0.2080000E+01  0.2670045E+06 -0.1961109E+01  0.1583516E+00 -0.5596181E+00  0.9611261E+05 -0.1682678E+01  0.2926185E+00  0.3125266E+01  0.5338389E+06 -0.1961119E+01  0.2107202E-06  0.1330534E+01
  0.2100000E+01  0.2620317E+06 -0.1992814E+01  0.3575319E-01 -0.1451487E+01  0.9302548E+05 -0.1725316E+01  0.2052587E-01 -0.1862318E+00  0.5238975E+06 -0.1992825E+01  0.1250482E-06 -0.1658793E+01
  0.2120000E+01  0.2571393E+06 -0.2025277E+01  0.2200627E-01 -0.3114455E+01  0.8988866E+05 -0.1769476E+01  0.2677157E+00 -0.2906141E+01  0.5141157E+06 -0.2025289E+01  0.5261925E-07  0.8407439E+00
  0.2140000E+01  0.2523282E+06 -0.2058485E+01  0.4792687E-01  0.1325130E+01  0.8662625E+05 -0.1815773E+01  0.1468298E+00 -0.2653536E+01  0.5044977E+06 -0.2058497E+01  0.2783267E-06 -0.1907452E+01
  0.2160000E+01  0.2476004E+06 -0.2092426E+01  0.5616420E-01  0.5027307E+00  0.8309610E+05 -0.1865424E+01  0.6922834E-01 -0.4662282E+00  0.4950447E+06 -0.2092440E+01  0.2234819E-06 -0.8774667E+00
  0.2180000E+01  0.2429557E+06 -0.2127091E+01  0.1391084E+00 -0.2792952E+01  0.7896767E+05 -0.1921160E+01  0.1229598E+00 -0.9335533E+00  0.4857590E+06 -0.2127105E+01  0.3689913E-06  0.3640172E+00
  0.2200000E+01  0.2383931E+06 -0.2162467E+01  0.6209966E-01 -0.4881621E+00  0.7328825E+05 -0.1990721E+01  0.1383418E+00 -0.7122832E+00  0.4766357E+06 -0.2162484E+01  0.1937288E-06 -0.9873274E+00
  0.2220000E+01  0.2339135E+06 -0.2198545E+01  0.4920556E-01 -0.2633513E+00  0.6176998E+05 -0.2107953E+01  0.1402331E+00 -0.3948853E+00  0.4676821E+06 -0.2198560E+01  0.1270685E-06 -0.7492546E+00
  0.2240000E+01  0.2295169E+06 -0.2235312E+01  0.4809560E-01 -0.3122943E+01  0.3633318E+05  0.2606341E+00  0.8964261E-01 -0.3084777E+01  0.4588901E+06 -0.2235332E+01  0.1451173E-06  0.5355767E+00
  0.2260000E+01  0.2252047E+06 -0.2272770E+01  0.1166856E+00  0.8772454E+00  0.1001314E+06 -0.1804871E+01  0.1986964E+00  0.1270991E+01  0.4502697E+06 -0.2272791E+01  0.4876786E-07 -0.1933930E+01
  0.2280000E+01  0.2209740E+06 -0.2310904E+01  0.2163965E-01  0.3115406E+01  0.8614830E+05 -0.1969129E+01  0.8162520E-01 -0.2763094E+00  0.4418112E+06 -0.2310925E+01  0.1634058E-06  0.4728944E+00
  0.2300000E+01  0.2168247E+06 -0.2349707E+01  0.9020514E-01 -0.1684748E+00  0.8024194E+05 -0.2049525E+01  0.1925675E+00  0.2432613E+01  0.4335163E+06 -0.2349728E+01  0.2262410E-06  0.2371013E+01
  0.2320000E+01  0.2127539E+06 -0.2389170E+01  0.8647316E-02 -0.1450573E+01  0.7635791E+05 -0.2111448E+01  0.1690506E+00  0.2472779E+01  0.4253787E+06 -0.2389190E+01  0.1574888E-06  0.2494141E+01
  0.2340000E+01  0.2087614E+06 -0.2429288E+01  0.7621065E-01 -0.3051584E+01  0.7329945E+05 -0.2166591E+01  0.5998524E-01 -0.3056482E+01  0.4173968E+06 -0.2429311E+01  0.2978355E-06 -0.1335548E+01
  0.2360000E+01  0.2048471E+06 -0.2470057E+01  0.6988189E-01  0.7755000E+00  0.7067327E+05 -0.2218656E+01  0.1493834E+00  0.2070525E+01  0.4095714E+06 -0.2470080E+01  0.3086737E-06 -0.8447754E+00
  0.2380000E+01  0.2010082E+06 -0.2511472E+01  0.3455051E-01  0.1347216E+01  0.6831641E+05 -0.2269198E+01  0.1615892E+00 -0.2725080E+01  0.4018960E+06 -0.2511498E+01  0.1480667E-06 -0.2958223E+01
  0.2400000E+01  0.1972427E+06 -0.2553532E+01  0.1648789E-01  0.5729368E+00  0.6614539E+05 -0.2318968E+01  0.2781602E-01 -0.1204475E+01  0.3943684E+06 -0.2553558E+01  0.2483889E-06  0.1623132E+00
  0.2420000E+01  0.1935512E+06 -0.2596232E+01  0.1402292E-01 -0.3630424E+00  0.6411239E+05 -0.2368378E+01  0.1212020E+00 -0.2745725E+01  0.3869887E+06 -0.2596260E+01  0.1505938E-06  0.9432731E-01
  0.2440000E+01  0.1899310E+06 -0.2639580E+01  0.4175987E-01  0.1561881E+01  0.6218933E+05 -0.2417679E+01  0.7786750E-01  0.1258790E+01  0.3797502E+06 -0.2639605E+01  0.8467294E-07  0.2764232E+01
  0.2460000E+01  0.1863794E+06 -0.2683567E+01  0.4273592E-01  0.1056231E+01  0.6035921E+05 -0.2467024E+01  0.6026139E-01  0.1677379E+01  0.3726503E+06 -0.2683593E+01  0.3499898E-06 -0.3084585E-01
  0.2480000E+01  0.1828928E+06 -0.2728204E+01  0.4763345E-01 -0.2902583E+01  0.5860889E+05 -0.2516512E+01  0.7088724E-01 -0.2666589E+01  0.3656797E+06 -0.2728230E+01  0.4059114E-07 -0.1456747E+01
  0.2500000E+01  0.1794704E+06 -0.2773498E+01  0.2319012E-01 -0.9106880E+00  0.5692907E+05 -0.2566210E+01  0.3424057E-01  0.1119309E+01  0.3588378E+06 -0.2773525E+01  0.1793975E-06  0.2625103E+01
  0.2520000E+01  0.1761104E+06 -0.2819467E+01  0.6590489E-01  0.1003255E+01  0.5531266E+05 -0.2616173E+01  0.3043509E-01 -0.1067434E+01  0.3521208E+06 -0.2819493E+01  0.7708164E-07  0.2581508E+01
  0.2540000E+01  0.1728100E+06 -0.2866130E+01  0.5462973E-01  0.7509532E+00  0.5375402E+05 -0.2666439E+01  0.9035116E-01 -0.5849422E+00  0.3455220E+06 -0.2866156E+01  0.4269940E-06  0.3970670E-01
  0.2560000E+01  0.1695641E+06 -0.2913518E+01  0.1398095E-01 -0.8391223E+00  0.5224904E+05 -0.2717041E+01  0.4452255E-01 -0.1121335E+01  0.3390331E+06 -0.2913543E+01  0.2020219E-06  0.2903502E+01
  0.2580000E+01  0.1663673E+06 -0.2961678E+01  0.8634085E-02  0.1246187E+01  0.5079464E+05 -0.2768000E+01  0.4677463E-01  0.2033946E+01  0.3326422E+06 -0.2961702E+01  0.2515051E-06  0.3076522E+01
  0.2600000E+01  0.1632070E+06 -0.3010672E+01  0.3908142E-01 -0.8020742E+00  0.4938804E+05 -0.2819336E+01  0.6788868E-01 -0.1527390E+01  0.3263237E+06 -0.3010695E+01  0.1565227E-06 -0.1849093E+00
  0.2620000E+01  0.1600724E+06 -0.3060609E+01  0.2715098E-01  0.2192760E+01  0.4802672E+05 -0.2871059E+01  0.4329490E-01 -0.9346362E+00  0.3200570E+06 -0.3060631E+01  0.5807808E-07  0.2468844E+00
  0.2640000E+01  0.1569498E+06 -0.3111671E+01  0.2754202E-01  0.7146970E+00  0.4670785E+05 -0.2923186E+01  0.3519112E-01 -0.2349633E+01  0.3138138E+06 -0.3111692E+01  0.1028337E-06  0.4177829E+00
  0.2660000E+01  0.1538103E+06  0.3119032E+01  0.2308329E-01  0.2360677E+01  0.4542998E+05 -0.2975722E+01  0.5507220E-01  0.1403276E+01  0.3075372E+06  0.3119012E+01  0.1588869E-06  0.1095957E+00
  0.2680000E+01  0.1505977E+06  0.3064582E+01  0.4963233E-01 -0.7270622E+00  0.4419125E+05 -0.3028671E+01  0.3155152E-01  0.2547336E+00  0.3011142E+06  0.3064562E+01  0.1772187E-06  0.3057832E+01
  0.2700000E+01  0.1472095E+06  0.3007009E+01  0.1015725E-01 -0.3846001E+00  0.4299014E+05 -0.3082039E+01  0.5646512E-01 -0.7588857E+00  0.2943403E+06  0.3006990E+01  0.1290846E-06 -0.1142426E+00
  0.2720000E+01  0.1433891E+06  0.2943505E+01  0.1108684E-01 -0.3140987E+01  0.4182519E+05 -0.3135832E+01  0.2728100E-01  0.2102257E+01  0.2867027E+06  0.2943487E+01  0.7474992E-07  0.6311412E+00
  0.2740000E+01  0.1382498E+06  0.2864939E+01  0.2410826E-01 -0.2221277E+01  0.4069487E+05  0.3093137E+01  0.2056359E-01  0.2264233E+01  0.2764277E+06  0.2864923E+01  0.8392042E-07  0.4684935E-01
  0.2760000E+01  0.1258898E+06  0.2715616E+01  0.1630739E-01 -0.2793850E+01  0.3959804E+05  0.3038493E+01  0.5944106E-01 -0.1367383E+01  0.2517179E+06  0.2715597E+01  0.1279615E-06 -0.3125580E+01
  0.2780000E+01  0.1628140E+06 -0.2920137E+01  0.3529430E-01 -0.2946729E-01  0.3853311E+05  0.2983429E+01  0.2221972E-01  0.2220936E+01  0.3255231E+06 -0.2920150E+01  0.2189199E-06 -0.3523888E+00
  0.2799999E+01  0.1457477E+06  0.2893656E+01  0.3012797E-01 -0.2289550E+01  0.3749951E+05  0.2927925E+01  0.5656726E-01 -0.4358258E+00  0.2914133E+06  0.2893642E+01  0.7085259E-07 -0.1094216E+01
  0.2819999E+01  0.1398680E+06  0.2791862E+01  0.5438780E-01 -0.3072392E+01  0.3649563E+05  0.2871996E+01  0.5496155E-01 -0.5829433E-01  0.2796593E+06  0.2791848E+01  0.4641548E-07  0.4331786E+00
  0.2840000E+01  0.1360840E+06  0.2719592E+01  0.6697330E-01 -0.3085645E+01  0.3552054E+05  0.2815626E+01  0.2525867E-01  0.3052215E+01  0.2720939E+06  0.2719578E+01  0.1391168E-06 -0.2594078E+01
  0.2860000E+01  0.1329976E+06  0.2655618E+01  0.4464844E-02  0.2973638E+00  0.3457341E+05  0.2758826E+01  0.3057405E-01 -0.1242975E+01  0.2659230E+06  0.2655604E+01  0.8054754E-07  0.1007393E+01
  0.2880000E+01  0.1302471E+06  0.2594909E+01  0.2920963E-01  0.2988029E+01  0.3365307E+05  0.2701586E+01  0.2111411E-01  0.3060078E+01  0.2604237E+06  0.2594895E+01  0.8584065E-07 -0.1784193E+01
  0.2900000E+01  0.1276970E+06  0.2535658E+01  0.1520701E-02  0.2503796E+01  0.3275852E+05  0.2643902E+01  0.4893278E-01 -0.2852104E+01  0.2553253E+06  0.2535644E+01  0.8166926E-07  0.2626478E+01
  0.2920000E+01  0.1252889E+06  0.2477064E+01  0.7801448E-02  0.4880760E+00  0.3188842E+05  0.2585779E+01  0.2432777E-01  0.6030725E-02  0.2505102E+06  0.2477051E+01  0.2599734E-07  0.1112996E+01
  0.2940000E+01  0.1229835E+06  0.2418705E+01  0.2821570E-02  0.2149478E+01  0.3104190E+05  0.2527217E+01  0.4435996E-01 -0.1112581E+00  0.2459010E+06  0.2418692E+01  0.5337416E-07 -0.1906020E+01
  0.2960000E+01  0.1207588E+06  0.2360351E+01  0.1480239E-02  0.2567322E+01  0.3021808E+05  0.2468220E+01  0.5090142E-02  0.3073387E+01  0.2414530E+06  0.2360336E+01  0.1385063E-06  0.1570662E+01
  0.2980000E+01  0.1186031E+06  0.2301857E+01  0.8709113E-02 -0.4690015E-02  0.2941587E+05  0.2408780E+01  0.8051173E-01 -0.3121956E+01  0.2371427E+06  0.2301841E+01  0.4945426E-07  0.1826097E+01
  0.3000000E+01  0.1165106E+06  0.2243139E+01  0.4967873E-02 -0.2685790E+01  0.2863395E+05  0.2348910E+01  0.1038018E+00  0.3094959E+01  0.2329591E+06  0.2243123E+01  0.5404529E-07  0.1195890E+01
  0.3020000E+01  0.1144738E+06  0.2184136E+01  0.2717935E-01  0.2987972E+01  0.2787101E+05  0.2288607E+01  0.3601379E-01 -0.1053623E+00  0.2288865E+06  0.2184119E+01  0.7182969E-07 -0.1093870E+01