VARIABLES="Frequency (rad/s)" "|Fx| (N/m)" "|Fy| (N/m)" "|Fz| (N/m)" "|Cx| (N)" "|Cy| (N)" "|Cz| (N)" "ang(Fx) (°)" "ang(Fy) (°)" "ang(Fz) (°)" "ang(Cx) (°)" "ang(Cy) (°)" "ang(Cz) (°)"
Zone t="Corps  1"
Zone t="Excitation force - beta =   0.000 deg",I=   420,F=POINT
 0.0200  0.349643E+04  0.804172E+00  0.769750E+06  0.100559E+01  0.699089E+04  0.804009E-08  -90.00  180.00   -0.00    0.00  -90.00  157.98
 0.0400  0.699892E+04  0.848060E+00  0.769156E+06  0.978021E-01  0.139939E+05  0.190826E-07  -90.00  180.00   -0.00    0.05  -90.00 -167.33
 0.0600  0.105116E+05  0.467450E+00  0.768165E+06  0.425306E+00  0.210173E+05  0.410473E-07  -90.00 -180.00   -0.01   -0.02  -90.00  176.51
 0.0800  0.140415E+05  0.822197E+00  0.766803E+06  0.133982E+01  0.280751E+05  0.148805E-07  -90.00    0.01   -0.02    0.00  -90.00    1.08
 0.1000  0.175941E+05  0.333009E+00  0.765067E+06  0.119664E+01  0.351782E+05  0.761478E-08  -90.00   -0.03   -0.02    0.02  -90.00   -3.33
 0.1200  0.211753E+05  0.109246E+00  0.762957E+06  0.120040E+01  0.423388E+05  0.218689E-07  -90.00    0.00   -0.03 -179.97  -90.00  148.26
 0.1400  0.247914E+05  0.268269E+00  0.760481E+06  0.957044E-01  0.495688E+05  0.150830E-07  -90.00  179.98   -0.05 -179.74  -90.00 -173.39
 0.1600  0.284486E+05  0.696631E+00  0.757631E+06  0.304057E+00  0.568811E+05  0.173571E-07  -90.00  179.98   -0.06  179.93  -90.00 -102.65
 0.1800  0.321543E+05  0.201510E+00  0.754416E+06  0.384230E+00  0.642904E+05  0.960690E-08  -90.00  179.82   -0.08    0.26  -90.00  -37.33
 0.2000  0.359148E+05  0.451375E+00  0.750832E+06  0.102616E+01  0.718094E+05  0.673968E-07  -89.99  180.00   -0.10   -0.06  -89.99   39.24
 0.2200  0.397389E+05  0.626525E-03  0.746887E+06  0.793566E+00  0.794552E+05  0.343612E-08  -89.99  146.72   -0.13   -0.05  -89.99   79.70
 0.2400  0.436336E+05  0.136433E+00  0.742563E+06  0.746954E+00  0.872424E+05  0.486913E-07  -89.99    0.41   -0.16  179.90  -89.99 -172.89
 0.2600  0.476083E+05  0.744372E+00  0.737884E+06  0.744953E+00  0.951895E+05  0.323884E-07  -89.99    0.04   -0.19    0.02  -89.99  118.30
 0.2800  0.516722E+05  0.244432E+00  0.732836E+06  0.172654E+01  0.103315E+06  0.154834E-07  -89.99   -0.11   -0.23  179.97  -89.99 -101.70
 0.3000  0.558340E+05  0.247508E+00  0.727419E+06  0.110970E+01  0.111636E+06  0.176957E-07  -89.98   -0.07   -0.27   -0.22  -89.98   90.45
 0.3200  0.601066E+05  0.145725E+00  0.721644E+06  0.789609E+00  0.120179E+06  0.209919E-07  -89.98  179.34   -0.32    0.03  -89.98   21.58
 0.3400  0.645004E+05  0.447396E+00  0.715512E+06  0.162541E+00  0.128964E+06  0.181895E-07  -89.98 -179.96   -0.37   -0.86  -89.98  -12.54
 0.3600  0.690265E+05  0.188465E+00  0.709014E+06  0.359079E-01  0.138014E+06  0.420730E-07  -89.97    0.70   -0.44    3.98  -89.97  143.60
 0.3800  0.736983E+05  0.245460E+00  0.702163E+06  0.673215E+00  0.147355E+06  0.405623E-07  -89.97  179.69   -0.51   -0.19  -89.97   82.59
 0.4000  0.785303E+05  0.594657E+00  0.694966E+06  0.118028E+00  0.157016E+06  0.295886E-07  -89.96 -179.92   -0.59   -3.68  -89.96 -109.49
 0.4200  0.835350E+05  0.362587E+00  0.687422E+06  0.230606E+00  0.167022E+06  0.290019E-07  -89.95   -0.58   -0.68  177.00  -89.95   -7.90
 0.4400  0.887278E+05  0.192652E+00  0.679553E+06  0.851544E+00  0.177405E+06  0.217759E-07  -89.94   -0.15   -0.79    0.43  -89.94  -48.64
 0.4600  0.941242E+05  0.575974E-01  0.671344E+06  0.727323E+00  0.188194E+06  0.482549E-07  -89.93 -179.62   -0.91  178.70  -89.93  -93.79
 0.4800  0.997387E+05  0.546181E-01  0.662835E+06  0.914916E+00  0.199420E+06  0.619991E-07  -89.92   -4.64   -1.04  179.92  -89.92 -117.44
 0.5000  0.105585E+06  0.367006E+00  0.654049E+06  0.292834E+00  0.211109E+06  0.456599E-07  -89.90    1.06   -1.19   -1.58  -89.90   91.90
 0.5200  0.111678E+06  0.198696E+00  0.644972E+06  0.133066E-01  0.223292E+06  0.755174E-07  -89.88 -177.00   -1.36  -84.57  -89.88   79.09
 0.5400  0.118031E+06  0.239270E+00  0.635675E+06  0.141384E-01  0.235993E+06  0.206591E-07  -89.86  178.24   -1.55  166.90  -89.86  164.25
 0.5600  0.124653E+06  0.362906E-02  0.626142E+06  0.650401E+00  0.249234E+06  0.580747E-07  -89.83   97.03   -1.77    0.41  -89.83  -85.22
 0.5800  0.131552E+06  0.414977E-01  0.616406E+06  0.548648E+00  0.263028E+06  0.128619E-06  -89.80  174.92   -2.01  179.82  -89.80 -107.84
 0.6000  0.138734E+06  0.166731E+00  0.606529E+06  0.913963E+00  0.277387E+06  0.234614E-07  -89.77   -3.31   -2.27    1.55  -89.77  144.86
 0.6200  0.146202E+06  0.593492E-01  0.596482E+06  0.525750E+00  0.292319E+06  0.171380E-06  -89.72    3.35   -2.56    0.06  -89.72   92.59
 0.6400  0.153951E+06  0.186140E+00  0.586344E+06  0.333533E+00  0.307812E+06  0.252365E-07  -89.67   -2.21   -2.88   -3.46  -89.67  110.75
 0.6600  0.161976E+06  0.335574E-01  0.576163E+06  0.620138E+00  0.323857E+06  0.514726E-07  -89.61  -21.08   -3.22   -1.03  -89.61   87.60
 0.6800  0.170266E+06  0.147244E+00  0.565936E+06  0.229732E+00  0.340433E+06  0.696435E-07  -89.55   -4.88   -3.60 -179.58  -89.55  -95.62
 0.7000  0.178809E+06  0.461495E+00  0.555676E+06  0.829939E+00  0.357514E+06  0.330740E-07  -89.47   -0.38   -3.99  179.55  -89.47   81.25
 0.7200  0.187587E+06  0.181160E+00  0.545394E+06  0.828148E+00  0.375064E+06  0.133120E-07  -89.39   -4.23   -4.42    1.97  -89.39   27.14
 0.7400  0.196579E+06  0.307057E+00  0.535156E+06  0.106153E+00  0.393042E+06  0.390061E-07  -89.29   -3.74   -4.88   -3.85  -89.29   36.24
 0.7600  0.205763E+06  0.734830E+00  0.524925E+06  0.486351E+00  0.411405E+06  0.720086E-07  -89.18  179.11   -5.36    4.73  -89.18 -100.91
 0.7800  0.215116E+06  0.168347E-01  0.514712E+06  0.766198E+00  0.430106E+06  0.561179E-08  -89.06  -31.47   -5.86  178.73  -89.06 -136.08
 0.8000  0.224615E+06  0.151539E+00  0.504588E+06  0.106374E+01  0.449097E+06  0.233327E-06  -88.93  176.87   -6.39    4.23  -88.93   85.05
 0.8200  0.234229E+06  0.551413E-01  0.494495E+06  0.941882E+00  0.468320E+06  0.502484E-07  -88.78  158.35   -6.95  178.51  -88.78  -65.82
 0.8400  0.243933E+06  0.307078E+00  0.484480E+06  0.195370E+01  0.487722E+06  0.399307E-07  -88.62 -179.97   -7.53    0.94  -88.62   62.53
 0.8600  0.253701E+06  0.501659E+00  0.474507E+06  0.484141E+00  0.507251E+06  0.144977E-06  -88.44 -174.81   -8.14    5.71  -88.44   81.71
 0.8800  0.263502E+06  0.229478E+00  0.464632E+06  0.167247E+01  0.526847E+06  0.647396E-07  -88.26  171.24   -8.77   -2.61  -88.26   91.78
 0.9000  0.273309E+06  0.174383E+00  0.454823E+06  0.556884E+00  0.546455E+06  0.170201E-06  -88.05    5.32   -9.43    3.83  -88.05  -99.00
 0.9200  0.283088E+06  0.585026E+00  0.445174E+06  0.298416E+00  0.566007E+06  0.991619E-07  -87.83    2.28  -10.11    8.86  -87.83  -86.20
 0.9400  0.292808E+06  0.207430E+00  0.435564E+06  0.523904E+00  0.585441E+06  0.974889E-07  -87.60   11.30  -10.83 -176.29  -87.60 -101.55
 0.9600  0.302439E+06  0.395988E+00  0.426018E+06  0.450037E+00  0.604696E+06  0.201403E-06  -87.35    2.32  -11.56    5.47  -87.35  -85.82
 0.9800  0.311945E+06  0.529107E+00  0.416600E+06  0.228778E+00  0.623703E+06  0.109970E-07  -87.09    1.15  -12.32    2.23  -87.09   41.09
 1.0000  0.321293E+06  0.625488E+00  0.407264E+06  0.420018E+00  0.642393E+06  0.154279E-06  -86.82   -2.85  -13.11  173.11  -86.82  -76.38
 1.0200  0.330441E+06  0.157100E+00  0.398093E+06  0.100057E+01  0.660683E+06  0.101358E-06  -86.53    1.48  -13.92   -0.36  -86.53   99.50
 1.0400  0.339363E+06  0.540464E+00  0.389102E+06  0.837405E+00  0.678521E+06  0.188408E-06  -86.24    3.69  -14.77 -175.93  -86.24  -75.21
 1.0600  0.347995E+06  0.360447E+00  0.380156E+06  0.779547E-01  0.695780E+06  0.105298E-07  -85.93  172.38  -15.63 -175.34  -85.93  144.29
 1.0800  0.356328E+06  0.243563E+00  0.371339E+06  0.406247E-01  0.712440E+06  0.605891E-07  -85.61 -161.35  -16.53   96.77  -85.61 -122.55
 1.1000  0.364309E+06  0.745073E+00  0.362678E+06  0.285833E+00  0.728397E+06  0.196494E-07  -85.29  178.24  -17.45 -155.49  -85.29  -29.85
 1.1200  0.371916E+06  0.976541E-01  0.354033E+06  0.157253E+00  0.743606E+06  0.581025E-07  -84.96    1.05  -18.40  131.90  -84.96  -71.15
 1.1400  0.379094E+06  0.199856E+00  0.345603E+06  0.546811E+00  0.757957E+06  0.127110E-06  -84.63 -167.08  -19.37  167.18  -84.63   86.05
 1.1600  0.385821E+06  0.711437E-01  0.337334E+06  0.906613E+00  0.771407E+06  0.308898E-07  -84.31  153.72  -20.38 -179.81  -84.31  -64.11
 1.1800  0.392048E+06  0.430587E+00  0.329255E+06  0.677198E+00  0.783855E+06  0.312542E-07  -83.98   -7.17  -21.41 -175.79  -83.98   74.64
 1.2000  0.397773E+06  0.113254E+01  0.321210E+06  0.193398E+00  0.795303E+06  0.148740E-06  -83.66  179.56  -22.46   25.55  -83.66  -97.34
 1.2200  0.402945E+06  0.546696E+00  0.313340E+06  0.774064E+00  0.805645E+06  0.339381E-06  -83.36 -173.24  -23.55 -167.69  -83.36  -87.57
 1.2400  0.407545E+06  0.143904E+00  0.305593E+06  0.809129E+00  0.814839E+06  0.113177E-06  -83.06    4.08  -24.66   -2.02  -83.06   78.40
 1.2600  0.411553E+06  0.257363E+00  0.298035E+06  0.723039E+00  0.822854E+06  0.262469E-07  -82.79 -178.03  -25.79 -161.14  -82.79  102.06
 1.2800  0.414985E+06  0.236403E+00  0.290616E+06  0.111319E+00  0.829715E+06  0.246671E-06  -82.53   21.97  -26.96  -89.89  -82.53   88.77
 1.3000  0.417822E+06  0.177680E-01  0.283364E+06  0.294586E+00  0.835387E+06  0.141997E-06  -82.30  -21.78  -28.15    5.53  -82.30  -99.89
 1.3200  0.420022E+06  0.372922E+00  0.276207E+06  0.836388E+00  0.839785E+06  0.249110E-06  -82.09   18.99  -29.37 -178.12  -82.09  -93.84
 1.3400  0.421627E+06  0.360760E+00  0.269145E+06  0.250098E+00  0.842993E+06  0.964624E-07  -81.92 -168.56  -30.61   33.53  -81.92   86.66
 1.3600  0.422634E+06  0.327363E+00  0.262272E+06  0.451987E-01  0.845007E+06  0.313186E-06  -81.79  164.94  -31.89 -137.27  -81.79  -86.81
 1.3800  0.423073E+06  0.548399E+00  0.255557E+06  0.102986E+01  0.845884E+06  0.471393E-06  -81.69   -9.06  -33.18   16.57  -81.69  -84.74
 1.4000  0.422921E+06  0.163312E+00  0.249012E+06  0.252645E+00  0.845580E+06  0.244355E-07  -81.63  -69.89  -34.51   92.43  -81.63 -123.81
 1.4200  0.422223E+06  0.902159E-01  0.242490E+06  0.306887E-01  0.844185E+06  0.388474E-06  -81.62   27.61  -35.86   96.18  -81.62  -90.58
 1.4400  0.420998E+06  0.663966E+00  0.236234E+06  0.333412E+00  0.841736E+06  0.186675E-06  -81.65  171.93  -37.24   -0.61  -81.65  -92.56
 1.4600  0.419269E+06  0.195507E+00  0.230049E+06  0.463457E+00  0.838277E+06  0.197348E-06  -81.74  -23.41  -38.65   11.16  -81.74  -85.54
 1.4800  0.417072E+06  0.127674E+00  0.224054E+06  0.221082E+00  0.833884E+06  0.264251E-06  -81.87  134.38  -40.09  164.24  -81.87  -97.55
 1.5000  0.414442E+06  0.326698E+00  0.218136E+06  0.658775E-02  0.828625E+06  0.346142E-06  -82.06   17.24  -41.55   22.80  -82.06   81.41
 1.5200  0.411397E+06  0.699314E-01  0.212373E+06  0.109277E+01  0.822539E+06  0.804185E-07  -82.31  140.98  -43.04  176.75  -82.31   -7.35
 1.5400  0.407979E+06  0.846781E-01  0.206759E+06  0.881875E+00  0.815705E+06  0.230754E-06  -82.61 -167.51  -44.56 -178.37  -82.61   89.47
 1.5600  0.404219E+06  0.262260E+00  0.201291E+06  0.342504E+00  0.808186E+06  0.107839E-06  -82.97  175.41  -46.10 -174.24  -82.97  -73.74
 1.5800  0.400148E+06  0.199407E+00  0.195817E+06  0.408376E+00  0.800046E+06  0.128648E-06  -83.39 -176.60  -47.67  -23.78  -83.39  -71.71
 1.6000  0.395799E+06  0.309627E-01  0.190658E+06  0.453871E+00  0.791350E+06  0.883053E-07  -83.87   15.08  -49.27 -172.68  -83.87  -91.09
 1.6200  0.391199E+06  0.805423E-01  0.185523E+06  0.187746E+00  0.782152E+06  0.100700E-06  -84.41  -74.13  -50.90   30.37  -84.41  -87.46
 1.6400  0.386391E+06  0.108368E+00  0.180528E+06  0.531875E+00  0.772539E+06  0.295843E-06  -85.00  113.42  -52.55   12.20  -85.00  -90.63
 1.6600  0.381393E+06  0.254550E+00  0.175666E+06  0.534905E+00  0.762548E+06  0.108800E-06  -85.66 -166.01  -54.23  -17.58  -85.66 -102.80
 1.6800  0.376233E+06  0.224931E+00  0.170816E+06  0.338605E+00  0.752230E+06  0.737525E-07  -86.38 -176.15  -55.94  124.66  -86.38 -122.27
 1.7000  0.370940E+06  0.183085E+00  0.166159E+06  0.147643E+00  0.741645E+06  0.202727E-07  -87.16  -16.92  -57.68    2.15  -87.16 -104.23
 1.7200  0.365534E+06  0.248265E+00  0.161709E+06  0.902793E+00  0.730837E+06  0.531153E-07  -87.99   -6.27  -59.44 -179.77  -87.99  -70.50
 1.7400  0.360039E+06  0.344702E+00  0.157228E+06  0.700786E+00  0.719850E+06  0.252927E-07  -88.89  175.23  -61.24  158.62  -88.89   73.80
 1.7600  0.354476E+06  0.165295E+00  0.152913E+06  0.482572E+00  0.708726E+06  0.664302E-07  -89.85 -159.71  -63.06  160.67  -89.85  -86.56
 1.7800  0.348862E+06  0.321864E+00  0.148759E+06  0.278120E+00  0.697503E+06  0.120554E-06  -90.86   11.17  -64.91   23.21  -90.86   87.70
 1.8000  0.343215E+06  0.259021E+00  0.144570E+06  0.402745E+00  0.686213E+06  0.265282E-07  -91.93 -162.30  -66.79    4.38  -91.93  -70.20
 1.8200  0.337551E+06  0.212618E+00  0.140539E+06  0.291104E+00  0.674890E+06  0.309127E-07  -93.05  174.74  -68.69   39.96  -93.05   15.34
 1.8400  0.331883E+06  0.821092E-01  0.136701E+06  0.448280E-01  0.663558E+06  0.142719E-07  -94.23  -52.46  -70.63   45.45  -94.23  -39.17
 1.8600  0.326226E+06  0.768635E-01  0.132833E+06  0.284765E+00  0.652246E+06  0.163987E-06  -95.47   43.19  -72.60  151.27  -95.47  -92.86
 1.8800  0.320590E+06  0.487930E+00  0.129109E+06  0.243285E+00  0.640975E+06  0.320626E-06  -96.75    1.18  -74.59   -6.29  -96.75   84.63
 1.9000  0.314978E+06  0.599925E-01  0.125565E+06  0.364138E+00  0.629758E+06  0.154403E-06  -98.09 -131.10  -76.62 -158.67  -98.09   84.77
 1.9200  0.309409E+06  0.122633E+00  0.122027E+06  0.597406E+00  0.618622E+06  0.222787E-07  -99.48 -142.52  -78.67    1.97  -99.48  -65.92
 1.9400  0.303883E+06  0.239315E+00  0.118496E+06  0.455664E+00  0.607574E+06  0.136357E-06 -100.92   -2.49  -80.76   40.26 -100.92 -113.07
 1.9600  0.298412E+06  0.141677E+00  0.115100E+06  0.133500E+00  0.596636E+06  0.227276E-06 -102.42  -29.92  -82.88  -96.04 -102.42  -84.87
 1.9800  0.293003E+06  0.725638E-01  0.111785E+06  0.273099E+00  0.585820E+06  0.138575E-06 -103.96  -23.20  -85.04  -40.57 -103.96  -89.60
 2.0000  0.287666E+06  0.740509E-01  0.108618E+06  0.107350E+00  0.575149E+06  0.196176E-06 -105.55    7.69  -87.21   66.00 -105.55  -72.60
 2.0200  0.282390E+06  0.921060E-01  0.105431E+06  0.356253E+00  0.564600E+06  0.335501E-07 -107.18   -6.37  -89.44  -37.47 -107.18  -95.13
 2.0400  0.277186E+06  0.187923E+00  0.102294E+06  0.359813E+00  0.554196E+06  0.251858E-06 -108.86   10.48  -91.71 -167.85 -108.86   67.42
 2.0600  0.272056E+06  0.400340E-01  0.991941E+05  0.542675E-01  0.543941E+06  0.895418E-07 -110.59   62.07  -94.03  131.45 -110.59  118.37
 2.0800  0.267004E+06  0.158352E+00  0.961126E+05  0.292618E+00  0.533839E+06  0.210720E-06 -112.36  -32.06  -96.41  179.06 -112.36   76.23
 2.1000  0.262032E+06  0.357532E-01  0.930255E+05  0.205259E-01  0.523898E+06  0.125048E-06 -114.18  -83.16  -98.85  -10.67 -114.18  -95.04
 2.1200  0.257139E+06  0.220063E-01  0.898887E+05  0.267716E+00  0.514116E+06  0.526192E-07 -116.04 -178.45 -101.38 -166.51 -116.04   48.17
 2.1400  0.252328E+06  0.479269E-01  0.866262E+05  0.146830E+00  0.504498E+06  0.278327E-06 -117.94   75.92 -104.04 -152.04 -117.94 -109.29
 2.1600  0.247600E+06  0.561642E-01  0.830961E+05  0.692283E-01  0.495045E+06  0.223482E-06 -119.89   28.80 -106.88  -26.71 -119.89  -50.28
 2.1800  0.242956E+06  0.139108E+00  0.789677E+05  0.122960E+00  0.485759E+06  0.368991E-06 -121.87 -160.02 -110.07  -53.49 -121.87   20.86
 2.2000  0.238393E+06  0.620997E-01  0.732882E+05  0.138342E+00  0.476636E+06  0.193729E-06 -123.90  -27.97 -114.06  -40.81 -123.90  -56.57
 2.2200  0.233914E+06  0.492056E-01  0.617700E+05  0.140233E+00  0.467682E+06  0.127068E-06 -125.97  -15.09 -120.78  -22.63 -125.97  -42.93
 2.2400  0.229517E+06  0.480956E-01  0.363332E+05  0.896426E-01  0.458890E+06  0.145117E-06 -128.07 -178.93   14.93 -176.74 -128.08   30.69
 2.2600  0.225205E+06  0.116686E+00  0.100131E+06  0.198696E+00  0.450270E+06  0.487679E-07 -130.22   50.26 -103.41   72.82 -130.22 -110.81
 2.2800  0.220974E+06  0.216397E-01  0.861483E+05  0.816252E-01  0.441811E+06  0.163406E-06 -132.41  178.50 -112.82  -15.83 -132.41   27.09
 2.3000  0.216825E+06  0.902051E-01  0.802419E+05  0.192568E+00  0.433516E+06  0.226241E-06 -134.63   -9.65 -117.43  139.38 -134.63  135.85
 2.3200  0.212754E+06  0.864732E-02  0.763579E+05  0.169051E+00  0.425379E+06  0.157489E-06 -136.89  -83.11 -120.98  141.68 -136.89  142.90
 2.3400  0.208761E+06  0.762106E-01  0.732995E+05  0.599852E-01  0.417397E+06  0.297835E-06 -139.19 -174.84 -124.14 -175.12 -139.19  -76.52
 2.3600  0.204847E+06  0.698819E-01  0.706733E+05  0.149383E+00  0.409571E+06  0.308674E-06 -141.52   44.43 -127.12  118.63 -141.53  -48.40
 2.3800  0.201008E+06  0.345505E-01  0.683164E+05  0.161589E+00  0.401896E+06  0.148067E-06 -143.90   77.19 -130.02 -156.14 -143.90 -169.49
 2.4000  0.197243E+06  0.164879E-01  0.661454E+05  0.278160E-01  0.394368E+06  0.248389E-06 -146.31   32.83 -132.87  -69.01 -146.31    9.30
 2.4200  0.193551E+06  0.140229E-01  0.641124E+05  0.121202E+00  0.386989E+06  0.150594E-06 -148.75  -20.80 -135.70 -157.32 -148.75    5.40
 2.4400  0.189931E+06  0.417599E-01  0.621893E+05  0.778675E-01  0.379750E+06  0.846729E-07 -151.24   89.49 -138.52   72.12 -151.24  158.38
 2.4600  0.186379E+06  0.427359E-01  0.603592E+05  0.602614E-01  0.372650E+06  0.349990E-06 -153.76   60.52 -141.35   96.11 -153.76   -1.77
 2.4800  0.182893E+06  0.476335E-01  0.586089E+05  0.708872E-01  0.365680E+06  0.405911E-07 -156.31 -166.31 -144.19 -152.78 -156.32  -83.47
 2.5000  0.179470E+06  0.231901E-01  0.569291E+05  0.342406E-01  0.358838E+06  0.179398E-06 -158.91  -52.18 -147.03   64.13 -158.91  150.41
 2.5200  0.176110E+06  0.659049E-01  0.553127E+05  0.304351E-01  0.352121E+06  0.770816E-07 -161.54   57.48 -149.90  -61.16 -161.55  147.91
 2.5400  0.172810E+06  0.546297E-01  0.537540E+05  0.903512E-01  0.345522E+06  0.426994E-06 -164.22   43.03 -152.78  -33.51 -164.22    2.28
 2.5600  0.169564E+06  0.139809E-01  0.522490E+05  0.445225E-01  0.339033E+06  0.202022E-06 -166.93  -48.08 -155.67  -64.25 -166.93  166.36
 2.5800  0.166367E+06  0.863408E-02  0.507946E+05  0.467746E-01  0.332642E+06  0.251505E-06 -169.69   71.40 -158.59  116.54 -169.69  176.27
 2.6000  0.163207E+06  0.390814E-01  0.493880E+05  0.678887E-01  0.326324E+06  0.156523E-06 -172.50  -45.96 -161.54  -87.51 -172.50  -10.59
 2.6200  0.160072E+06  0.271510E-01  0.480267E+05  0.432949E-01  0.320057E+06  0.580781E-07 -175.36  125.64 -164.50  -53.55 -175.36   14.15
 2.6400  0.156950E+06  0.275420E-01  0.467078E+05  0.351911E-01  0.313814E+06  0.102834E-06 -178.29   40.95 -167.49 -134.62 -178.29   23.94
 2.6600  0.153810E+06  0.230833E-01  0.454300E+05  0.550722E-01  0.307537E+06  0.158887E-06  178.71  135.26 -170.50   80.40  178.71    6.28
 2.6800  0.150598E+06  0.496323E-01  0.441913E+05  0.315515E-01  0.301114E+06  0.177219E-06  175.59  -41.66 -173.53   14.60  175.59  175.20
 2.7000  0.147209E+06  0.101572E-01  0.429901E+05  0.564651E-01  0.294340E+06  0.129085E-06  172.29  -22.04 -176.59  -43.48  172.29   -6.55
 2.7200  0.143389E+06  0.110868E-01  0.418252E+05  0.272810E-01  0.286703E+06  0.747499E-07  168.65 -179.97 -179.67  120.45  168.65   36.16
 2.7400  0.138250E+06  0.241083E-01  0.406949E+05  0.205636E-01  0.276428E+06  0.839204E-07  164.15 -127.27  177.22  129.73  164.15    2.68
 2.7600  0.125890E+06  0.163074E-01  0.395980E+05  0.594411E-01  0.251718E+06  0.127961E-06  155.59 -160.08  174.09  -78.35  155.59 -179.08
 2.7800  0.162814E+06  0.352943E-01  0.385331E+05  0.222197E-01  0.325523E+06  0.218920E-06 -167.31   -1.69  170.94  127.25 -167.31  -20.19
 2.8000  0.145748E+06  0.301280E-01  0.374995E+05  0.565673E-01  0.291413E+06  0.708526E-07  165.79 -131.18  167.76  -24.97  165.79  -62.69
 2.8200  0.139868E+06  0.543878E-01  0.364956E+05  0.549616E-01  0.279659E+06  0.464155E-07  159.96 -176.04  164.55   -3.34  159.96   24.82
 2.8400  0.136084E+06  0.669733E-01  0.355205E+05  0.252587E-01  0.272094E+06  0.139117E-06  155.82 -176.79  161.32  174.88  155.82 -148.63
 2.8600  0.132998E+06  0.446484E-02  0.345734E+05  0.305741E-01  0.265923E+06  0.805475E-07  152.16   17.04  158.07  -71.22  152.15   57.72
 2.8800  0.130247E+06  0.292096E-01  0.336531E+05  0.211141E-01  0.260424E+06  0.858406E-07  148.68  171.20  154.79  175.33  148.68 -102.23
 2.9000  0.127697E+06  0.152070E-02  0.327585E+05  0.489328E-01  0.255325E+06  0.816693E-07  145.28  143.46  151.48 -163.41  145.28  150.49
 2.9200  0.125289E+06  0.780145E-02  0.318884E+05  0.243278E-01  0.250510E+06  0.259973E-07  141.93   27.96  148.15    0.35  141.92   63.77
 2.9400  0.122983E+06  0.282157E-02  0.310419E+05  0.443600E-01  0.245901E+06  0.533742E-07  138.58  123.16  144.80   -6.37  138.58 -109.21
 2.9600  0.120759E+06  0.148024E-02  0.302181E+05  0.509014E-02  0.241453E+06  0.138506E-06  135.24  147.10  141.42  176.09  135.24   89.99
 2.9800  0.118603E+06  0.870911E-02  0.294159E+05  0.805117E-01  0.237143E+06  0.494543E-07  131.89   -0.27  138.01 -178.87  131.89  104.63
 3.0000  0.116511E+06  0.496787E-02  0.286340E+05  0.103802E+00  0.232959E+06  0.540453E-07  128.52 -153.88  134.58  177.33  128.52   68.52
 3.0200  0.114474E+06  0.271794E-01  0.278710E+05  0.360138E-01  0.228886E+06  0.718297E-07  125.14  171.20  131.13   -6.04  125.14  -62.67
 3.0400  0.112487E+06  0.703431E-02  0.271259E+05  0.287010E-02  0.224914E+06  0.525237E-07  121.74   -8.86  127.65   61.04  121.74  -80.85
 3.0600  0.110547E+06  0.228655E-01  0.263971E+05  0.119820E-01  0.221036E+06  0.772813E-07  118.32  164.31  124.14    6.34  118.32   54.91
 3.0800  0.108653E+06  0.727887E-01  0.256820E+05  0.123436E-01  0.217249E+06  0.519786E-07  114.88   -5.57  120.61   17.46  114.88 -126.06
 3.1000  0.106802E+06  0.190827E-01  0.249793E+05  0.445597E-01  0.213548E+06  0.708590E-07  111.42   10.14  117.05   45.22  111.41  -13.76
 3.1200  0.104992E+06  0.984089E-02  0.242847E+05  0.703104E-01  0.209930E+06  0.540416E-07  107.93 -176.60  113.46  172.73  107.93  104.57
 3.1400  0.103222E+06  0.189964E-01  0.235952E+05  0.799793E-01  0.206390E+06  0.302367E-07  104.42 -107.54  109.85  171.76  104.41    8.38
 3.1600  0.101489E+06  0.127840E-01  0.229053E+05  0.597975E-01  0.202926E+06  0.269245E-07  100.88 -173.53  106.20  -14.48  100.88  -65.56
 3.1800  0.997929E+05  0.171006E-01  0.222075E+05  0.246234E-01  0.199535E+06  0.101098E-06   97.32   25.94  102.51  -82.29   97.32 -140.58
 3.2000  0.981323E+05  0.181476E-01  0.214886E+05  0.331818E-01  0.196215E+06  0.263628E-07   93.73  -46.42   98.78   -9.45   93.73  137.29
 3.2200  0.965067E+05  0.179060E-01  0.207196E+05  0.272063E-01  0.192964E+06  0.260307E-07   90.13   16.33   94.98 -149.46   90.12 -136.13
 3.2400  0.949145E+05  0.899181E-02  0.198480E+05  0.158280E-01  0.189782E+06  0.440112E-07   86.49  172.72   91.10   93.96   86.49   58.52
 3.2600  0.933554E+05  0.871828E-02  0.187134E+05  0.204850E-01  0.186664E+06  0.411956E-07   82.83 -149.78   87.04   22.67   82.83  163.36
 3.2800  0.918277E+05  0.371809E-02  0.167375E+05  0.253326E-01  0.183610E+06  0.130824E-06   79.15 -148.33   82.50  -40.69   79.15  171.81
 3.3000  0.903309E+05  0.216774E-01  0.824526E+04  0.884617E-02  0.180618E+06  0.229093E-07   75.44   46.63   74.65  150.19   75.44  -83.70
 3.3200  0.888636E+05  0.229988E-01  0.285507E+05  0.252078E-01  0.177684E+06  0.922431E-07   71.70  -93.00   82.23  -21.00   71.70  177.12
 3.3400  0.874253E+05  0.172563E-01  0.221477E+05  0.226418E-01  0.174809E+06  0.127494E-07   67.95   83.43   75.00 -103.96   67.95  -44.94
 3.3600  0.860151E+05  0.227040E-01  0.203932E+05  0.364466E-01  0.171989E+06  0.669366E-07   64.16  -40.11   70.42  159.62   64.16 -155.57
 3.3800  0.846320E+05  0.222931E-01  0.193805E+05  0.120253E-01  0.169224E+06  0.443259E-07   60.36 -109.38   66.25 -143.54   60.36 -145.70
 3.4000  0.832751E+05  0.324517E-01  0.186256E+05  0.391334E-01  0.166512E+06  0.557638E-07   56.53  -68.87   62.19 -164.48   56.52   43.55
 3.4200  0.819442E+05  0.103191E-01  0.179923E+05  0.414681E-01  0.163851E+06  0.862580E-07   52.67  -21.04   58.17 -121.08   52.67   -8.91
 3.4400  0.806385E+05  0.780844E-02  0.174321E+05  0.120826E-01  0.161240E+06  0.811374E-07   48.79   72.88   54.16 -120.78   48.79   -0.22
 3.4600  0.793574E+05  0.102614E-01  0.169198E+05  0.276316E-01  0.158679E+06  0.515046E-07   44.89  151.44   50.15  -69.61   44.89  -77.23
 3.4800  0.781022E+05  0.540580E-02  0.164427E+05  0.165786E-01  0.156169E+06  0.937477E-07   40.97  -59.97   46.13 -156.01   40.97 -169.58
 3.5000  0.768764E+05  0.144885E-02  0.159919E+05  0.200641E-01  0.153718E+06  0.604308E-07   37.03  -80.95   42.09  -84.60   37.03   91.10
 3.5200  0.756987E+05  0.549576E-02  0.155625E+05  0.226165E-02  0.151364E+06  0.582975E-07   33.08   80.28   38.03 -178.86   33.08  -45.95
 3.5400  0.747101E+05  0.370663E-02  0.151510E+05  0.514004E-02  0.149387E+06  0.577937E-07   29.17  156.65   33.95 -136.30   29.16  -46.21
 3.5600  0.723668E+05  0.511080E-02  0.147548E+05  0.196817E-01  0.144704E+06  0.191039E-07   24.72  165.39   29.85  -58.48   24.72  -60.82
 3.5800  0.717164E+05  0.314093E-02  0.143729E+05  0.374174E-01  0.143403E+06  0.393520E-07   20.91  176.99   25.72   64.72   20.91   24.56
 3.6000  0.705883E+05  0.150623E-01  0.140040E+05  0.135026E-01  0.141147E+06  0.677325E-07   16.89  -88.97   21.56   39.90   16.89  130.26
 3.6200  0.693948E+05  0.990688E-02  0.136475E+05  0.554014E-02  0.138761E+06  0.945621E-07   12.84  -84.47   17.38   88.78   12.84  -92.96
 3.6400  0.681416E+05  0.186618E-01  0.133026E+05  0.158479E-01  0.136256E+06  0.175396E-06    8.77   63.52   13.17   91.84    8.77  -88.67
 3.6600  0.667637E+05  0.386198E-02  0.129688E+05  0.262834E-01  0.133501E+06  0.109462E-06    4.72  -32.21    8.94 -109.88    4.72   62.51
 3.6800  0.650693E+05  0.598804E-02  0.126453E+05  0.217023E-01  0.130114E+06  0.699756E-07    0.73 -170.83    4.69  119.97    0.73 -108.43
 3.7000  0.621989E+05  0.112565E-01  0.123316E+05  0.163745E-01  0.124377E+06  0.401144E-08   -2.96  150.84    0.42  144.62   -2.97  176.67
 3.7200  0.325202E+05  0.116526E-01  0.120271E+05  0.209872E-01  0.650643E+05  0.952195E-07    0.64   58.87   -3.89  124.36    0.63 -126.60
 3.7400  0.694674E+05  0.142990E-02  0.117312E+05  0.261372E-01  0.138900E+06  0.453240E-07  -13.92 -100.49   -8.21  -18.56  -13.92 -141.48
 3.7600  0.656951E+05  0.101307E-01  0.114442E+05  0.160572E-01  0.131361E+06  0.227791E-07  -17.43  -21.34  -12.57  132.10  -17.43  177.75
 3.7800  0.639093E+05  0.116021E-01  0.111660E+05  0.502398E-02  0.127791E+06  0.321832E-07  -21.50   39.38  -16.95   57.24  -21.50  153.65
 3.8000  0.625777E+05  0.123223E-01  0.108971E+05  0.279228E-01  0.125129E+06  0.388042E-07  -25.71    6.05  -21.36 -170.85  -25.71  -62.33
 3.8200  0.614265E+05  0.225020E-02  0.106401E+05  0.465564E-02  0.122828E+06  0.661593E-07  -29.99   19.99  -25.81  105.05  -29.99 -124.89
 3.8400  0.603704E+05  0.556164E-02  0.104048E+05  0.498772E-02  0.120716E+06  0.513654E-07  -34.31  176.21  -30.33    0.87  -34.31 -125.82
 3.8600  0.593777E+05  0.622951E-02  0.102890E+05  0.915953E-02  0.118732E+06  0.823772E-07  -38.68    1.66  -35.14 -166.62  -38.68  -34.20
 3.8800  0.584295E+05  0.282223E-02  0.963245E+04  0.340670E-02  0.116836E+06  0.168669E-07  -43.07 -170.05  -38.03   18.36  -43.07   33.97
 3.9000  0.575148E+05  0.140488E-02  0.950566E+04  0.162044E-01  0.115007E+06  0.580681E-07  -47.49   -4.33  -43.19    0.29  -47.50   36.97
 3.9200  0.566291E+05  0.249579E-02  0.928294E+04  0.456750E-02  0.113236E+06  0.920248E-07  -51.95  -28.21  -47.79 -175.47  -51.95 -176.70
 3.9400  0.557671E+05  0.471118E-02  0.904480E+04  0.188111E-01  0.111513E+06  0.440521E-07  -56.42  -12.42  -52.33   -2.87  -56.43   68.37
 3.9600  0.549256E+05  0.683617E-02  0.879806E+04  0.198396E-02  0.109831E+06  0.126743E-07  -60.93  149.36  -56.84  130.59  -60.93 -133.57
 3.9800  0.541030E+05  0.168136E-01  0.854060E+04  0.320627E-01  0.108186E+06  0.542405E-07  -65.46  165.42  -61.34  171.06  -65.46  160.02
 4.0000  0.532982E+05  0.521513E-02  0.827049E+04  0.139587E-01  0.106577E+06  0.136787E-06  -70.01   -8.94  -65.82  172.02  -70.02   -6.25
 4.0200  0.525106E+05  0.434553E-02  0.797694E+04  0.319905E-01  0.105002E+06  0.131379E-06  -74.60   31.48  -70.28  173.61  -74.60   -4.08
 4.0400  0.517398E+05  0.644696E-02  0.764080E+04  0.206820E-01  0.103461E+06  0.747916E-07  -79.20  -94.09  -74.67   -1.03  -79.20  154.81
 4.0600  0.509861E+05  0.701155E-02  0.722720E+04  0.189721E-01  0.101954E+06  0.390161E-07  -83.83   72.34  -78.94  172.73  -83.83  -31.97
 4.0800  0.502498E+05  0.364123E-02  0.663744E+04  0.843775E-02  0.100482E+06  0.397503E-07  -88.48 -179.44  -82.94 -101.97  -88.48  126.39
 4.1000  0.495328E+05  0.853551E-02  0.549782E+04  0.318293E-02  0.990482E+05  0.385578E-08  -93.16   70.96  -86.02  103.65  -93.16  118.89
 4.1200  0.488434E+05  0.476415E-02  0.580897E+03  0.404108E-02  0.976699E+05  0.775022E-07  -97.86   -2.68  -79.28 -124.21  -97.86  -51.71
 4.1400  0.482297E+05  0.424654E-02  0.145578E+05  0.359242E-01  0.964430E+05  0.324448E-07 -102.60 -118.64 -111.18  -11.24 -102.60   83.52
 4.1600  0.471782E+05  0.150586E-01  0.978168E+04  0.893242E-02  0.943376E+05  0.350016E-07 -106.06 -138.34 -108.12   68.22 -106.06  -75.11
 4.1800  0.465557E+05  0.645392E-02  0.865845E+04  0.458000E-02  0.930953E+05  0.653911E-07 -111.92   98.53 -111.30  176.39 -111.92 -163.01
 4.2000  0.459383E+05  0.476966E-02  0.807743E+04  0.183059E-01  0.918611E+05  0.529600E-07 -116.73  168.98 -115.43  120.69 -116.73   22.60
 4.2200  0.452930E+05  0.936463E-03  0.768573E+04  0.172161E-01  0.905709E+05  0.826070E-07 -121.52  139.01 -119.88   51.48 -121.52  176.26
 4.2400  0.446438E+05  0.515874E-02  0.738052E+04  0.984279E-02  0.892728E+05  0.330998E-07 -126.32  -86.75 -124.49  -35.55 -126.32 -146.98