VARIABLES="w (rad/s)"
"abs(F   1   1)" "angle(F   1   1)"
"abs(F   1   2)" "angle(F   1   2)"
"abs(F   1   3)" "angle(F   1   3)"
"abs(F   1   4)" "angle(F   1   4)"
"abs(F   1   5)" "angle(F   1   5)"
"abs(F   1   6)" "angle(F   1   6)"
Zone t="FKforce - beta =   0.000",I=   420,F=POINT
  0.2000000E-01  0.2316009E+04 -0.1570796E+01  0.8042164E+00  0.3141591E+01  0.7698606E+06  0.8206801E-11  0.1005394E+01 -0.4209225E-05  0.4630708E+04 -0.1570798E+01  0.7780309E-08  0.2849419E+01
  0.4000000E-01  0.4635683E+04 -0.1570796E+01  0.8479156E+00 -0.3141591E+01  0.7695547E+06 -0.4058559E-10  0.9799957E-01  0.2098336E-04  0.9268747E+04 -0.1570799E+01  0.1872523E-07 -0.3038831E+01
  0.5999999E-01  0.6962698E+04 -0.1570798E+01  0.4676533E+00  0.3141572E+01  0.7690413E+06  0.5456361E-10  0.4256210E+00 -0.1960582E-05  0.1392150E+05 -0.1570796E+01  0.4099014E-07  0.3117450E+01
  0.8000000E-01  0.9300830E+04 -0.1570796E+01  0.8220692E+00  0.4386591E-05  0.7683239E+06 -0.4220216E-10  0.1339752E+01  0.2224465E-06  0.1859645E+05 -0.1570796E+01  0.1490844E-07 -0.3123983E-01
  0.9999999E-01  0.1165394E+05 -0.1570797E+01  0.3338356E+00 -0.9284335E-05  0.7674018E+06 -0.1048555E-10  0.1195541E+01  0.2622414E-04  0.2330130E+05 -0.1570797E+01  0.7602732E-08 -0.2003985E+00
  0.1200000E+00  0.1402590E+05 -0.1570796E+01  0.1081581E+00  0.3526964E-04  0.7662736E+06 -0.9489778E-11  0.1201630E+01 -0.3141592E+01  0.2804393E+05 -0.1570796E+01  0.2095678E-07  0.2665523E+01
  0.1400000E+00  0.1642087E+05 -0.1570797E+01  0.2688770E+00  0.3141591E+01  0.7649422E+06  0.1393218E-09  0.9101105E-01  0.3141450E+01  0.3283256E+05 -0.1570796E+01  0.1495608E-07 -0.3055866E+01
  0.1600000E+00  0.1884310E+05 -0.1570796E+01  0.6985073E+00 -0.3141591E+01  0.7634058E+06  0.1686469E-10  0.3043518E+00 -0.3141493E+01  0.3767560E+05 -0.1570796E+01  0.9707251E-08 -0.1964665E+01
  0.1800000E+00  0.2129710E+05 -0.1570796E+01  0.2058582E+00  0.3141497E+01  0.7616648E+06  0.8373365E-11  0.3869171E+00  0.4929605E-05  0.4258217E+05 -0.1570797E+01  0.8086467E-08 -0.3992208E+00
  0.2000000E+00  0.2378749E+05 -0.1570796E+01  0.4503536E+00  0.3141489E+01  0.7597207E+06 -0.1321199E-09  0.1012741E+01  0.9040093E-04  0.4756159E+05 -0.1570796E+01  0.6296261E-07  0.5946692E+00
  0.2200000E+00  0.2631938E+05 -0.1570796E+01  0.1630795E-02  0.3137791E+01  0.7575741E+06 -0.1627067E-09  0.7936783E+00 -0.3815042E-04  0.5262383E+05 -0.1570796E+01  0.7683411E-08 -0.1570796E+01
  0.2400000E+00  0.2889801E+05 -0.1570796E+01  0.1355686E+00 -0.2110387E-04  0.7552220E+06  0.1862591E-09  0.7549286E+00  0.3141559E+01  0.5777955E+05 -0.1570797E+01  0.4872395E-07 -0.3031463E+01
  0.2600000E+00  0.3152911E+05 -0.1570796E+01  0.7380867E+00 -0.3714758E-04  0.7526714E+06 -0.4357077E-09  0.7338257E+00 -0.6075595E-04  0.6304027E+05 -0.1570796E+01  0.2225574E-07  0.2304389E+01
  0.2800000E+00  0.3421854E+05 -0.1570796E+01  0.2499447E+00 -0.8823440E-04  0.7499161E+06 -0.1901203E-09  0.1707596E+01  0.3141553E+01  0.6841773E+05 -0.1570797E+01  0.1853893E-07 -0.1773118E+01
  0.3000000E+00  0.3697281E+05 -0.1570796E+01  0.2430439E+00  0.2305278E-04  0.7469604E+06  0.3364210E-09  0.1124413E+01 -0.1420657E-04  0.7392461E+05 -0.1570796E+01  0.1420267E-07  0.1570796E+01
  0.3200000E+00  0.3979870E+05 -0.1570796E+01  0.1463223E+00  0.3141566E+01  0.7438037E+06 -0.1520961E-09  0.7951736E+00 -0.3957784E-04  0.7957504E+05 -0.1570796E+01  0.2052214E-07  0.4332002E+00
  0.3400000E+00  0.4270368E+05 -0.1570796E+01  0.4439392E+00  0.3141564E+01  0.7404483E+06 -0.2431041E-10  0.1530075E+00 -0.5983544E-03  0.8538318E+05 -0.1570796E+01  0.1914457E-07 -0.2331798E+00
  0.3600000E+00  0.4569536E+05 -0.1570796E+01  0.1967030E+00 -0.2618080E-03  0.7368952E+06  0.3947246E-10  0.5754855E-01 -0.9031550E-03  0.9136493E+05 -0.1570796E+01  0.4016649E-07  0.2558413E+01
  0.3800000E+00  0.4878184E+05 -0.1570796E+01  0.2440777E+00  0.3141559E+01  0.7331436E+06 -0.3528424E-09  0.6509628E+00  0.1347819E-03  0.9753603E+05 -0.1570796E+01  0.2703343E-07  0.1432553E+01
  0.4000000E+00  0.5197185E+05 -0.1570796E+01  0.5837917E+00 -0.3141538E+01  0.7291968E+06 -0.3230370E-09  0.1087112E+00 -0.2105411E-03  0.1039140E+06 -0.1570796E+01  0.3593822E-07 -0.1779627E+01
  0.4200000E+00  0.5527421E+05 -0.1570796E+01  0.3724995E+00 -0.2201775E-03  0.7250553E+06  0.1473150E-09  0.1959381E+00  0.3141369E+01  0.1105168E+06 -0.1570796E+01  0.3151395E-07 -0.3310961E+00
  0.4400000E+00  0.5869820E+05 -0.1570796E+01  0.1901226E+00  0.2294866E-03  0.7207224E+06 -0.2778762E-10  0.8765717E+00  0.1022682E-03  0.1173628E+06 -0.1570796E+01  0.4645949E-07 -0.1244291E+01
  0.4600000E+00  0.6225308E+05 -0.1570796E+01  0.4655648E-01 -0.3140932E+01  0.7161978E+06 -0.4011383E-09  0.7815857E+00 -0.3141450E+01  0.1244706E+06 -0.1570796E+01  0.2911035E-07 -0.1699120E+01
  0.4800000E+00  0.6594809E+05 -0.1570796E+01  0.4856684E-01  0.9278166E-03  0.7114852E+06 -0.1742519E-10  0.9191513E+00 -0.3141431E+01  0.1318585E+06 -0.1570796E+01  0.6415318E-07 -0.2053922E+01
  0.5000000E+00  0.6979212E+05 -0.1570796E+01  0.3763676E+00 -0.7348284E-04  0.7065862E+06  0.4538342E-09  0.2987137E+00  0.5906316E-04  0.1395444E+06 -0.1570796E+01  0.4578661E-07  0.1652248E+01
  0.5200000E+00  0.7379381E+05 -0.1570796E+01  0.1863079E+00  0.3141149E+01  0.7015022E+06 -0.4894108E-10  0.5004141E-01 -0.2906304E-02  0.1475452E+06 -0.1570796E+01  0.9064023E-07  0.1405648E+01
  0.5399999E+00  0.7796034E+05 -0.1570796E+01  0.2354507E+00 -0.3141529E+01  0.6962399E+06 -0.6814504E-10  0.2327774E-01  0.3135324E+01  0.1558756E+06 -0.1570796E+01  0.2196520E-07  0.2582993E+01
  0.5599999E+00  0.8229810E+05 -0.1570796E+01  0.8450158E-02  0.2437991E-01  0.6907997E+06 -0.3071694E-10  0.6274338E+00  0.9499751E-04  0.1645491E+06 -0.1570796E+01  0.4210824E-07 -0.1392921E+01
  0.5799999E+00  0.8681174E+05 -0.1570796E+01  0.4333893E-01  0.3138941E+01  0.6851846E+06 -0.7815239E-09  0.5558319E+00 -0.3141503E+01  0.1735736E+06 -0.1570796E+01  0.1090085E-06 -0.1919567E+01
  0.5999999E+00  0.9150400E+05 -0.1570796E+01  0.1573391E+00  0.3060940E-03  0.6793996E+06  0.9124060E-11  0.9118805E+00  0.6588745E-04  0.1829553E+06 -0.1570796E+01  0.2667309E-07  0.2343849E+01
  0.6199999E+00  0.9637538E+05 -0.1570796E+01  0.2615562E-01  0.3318007E-02  0.6734460E+06 -0.1004023E-08  0.4723663E+00  0.4441645E-04  0.1926953E+06 -0.1570796E+01  0.1157241E-06  0.1635223E+01
  0.6399999E+00  0.1014241E+06 -0.1570796E+01  0.2044239E+00 -0.1586161E-03  0.6673289E+06 -0.9710680E-09  0.3096011E+00  0.1318383E-02  0.2027892E+06 -0.1570796E+01  0.2136467E-07  0.1927016E+01
  0.6599999E+00  0.1066458E+06 -0.1570796E+01  0.1609613E-01  0.1273847E-02  0.6610532E+06  0.1262326E-09  0.6233826E+00 -0.4742497E-03  0.2132298E+06 -0.1570796E+01  0.1024455E-07  0.1570796E+01
  0.6799999E+00  0.1120344E+06 -0.1570796E+01  0.1182327E+00 -0.3468413E-03  0.6546214E+06  0.2913667E-10  0.1566735E+00  0.3140881E+01  0.2240037E+06 -0.1570796E+01  0.5775890E-07 -0.1700151E+01
  0.6999999E+00  0.1175809E+06 -0.1570796E+01  0.4128247E+00  0.3719293E-03  0.6480359E+06 -0.1448092E-08  0.7863846E+00  0.3141198E+01  0.2350936E+06 -0.1570796E+01  0.3095860E-07  0.1450173E+01
  0.7199998E+00  0.1232756E+06 -0.1570796E+01  0.1378651E+00 -0.6952033E-03  0.6413044E+06 -0.4825592E-09  0.8563920E+00 -0.2906485E-03  0.2464792E+06 -0.1570796E+01  0.1647678E-07  0.8253769E+00
  0.7399999E+00  0.1291072E+06 -0.1570796E+01  0.2649212E+00  0.7919651E-04  0.6344258E+06  0.6403669E-09  0.1428605E+00 -0.1068090E-02  0.2581391E+06 -0.1570796E+01  0.3415555E-07  0.1920480E+00
  0.7599999E+00  0.1350633E+06 -0.1570796E+01  0.7393170E+00 -0.3141300E+01  0.6274055E+06 -0.3283262E-09  0.5444794E+00 -0.1506320E-03  0.2700477E+06 -0.1570796E+01  0.4114717E-07 -0.1661456E+01
  0.7799999E+00  0.1411310E+06 -0.1570796E+01  0.1593223E-01  0.4309802E-02  0.6202481E+06 -0.1043241E-08  0.8172989E+00  0.3141370E+01  0.2821791E+06 -0.1570796E+01  0.1871935E-07  0.1670465E+01
  0.8000000E+00  0.1472976E+06 -0.1570796E+01  0.1326504E+00 -0.3141298E+01  0.6129553E+06 -0.3162291E-08  0.9382249E+00  0.4533441E-03  0.2945086E+06 -0.1570796E+01  0.2133278E-06  0.1474603E+01
  0.8199999E+00  0.1535502E+06 -0.1570796E+01  0.6601531E-01 -0.3140148E+01  0.6055334E+06  0.1310344E-08  0.8983460E+00  0.3141259E+01  0.3070099E+06 -0.1570796E+01  0.7002282E-07 -0.1329044E+01
  0.8399999E+00  0.1598766E+06 -0.1570796E+01  0.2874852E+00  0.3141228E+01  0.5979841E+06  0.2545326E-08  0.1959847E+01 -0.3289461E-03  0.3196590E+06 -0.1570796E+01  0.5245256E-07  0.1282741E+01
  0.8599999E+00  0.1662648E+06 -0.1570796E+01  0.5339527E+00  0.3141291E+01  0.5903110E+06 -0.3554200E-09  0.6572953E+00 -0.3250032E-03  0.3324315E+06 -0.1570796E+01  0.1330847E-06  0.1458593E+01
  0.8799999E+00  0.1727025E+06 -0.1570796E+01  0.2376176E+00 -0.3140678E+01  0.5825178E+06 -0.9004375E-10  0.1750942E+01  0.5446635E-05  0.3453036E+06 -0.1570796E+01  0.7002282E-07  0.1812549E+01
  0.8999999E+00  0.1791799E+06 -0.1570796E+01  0.1246586E+00  0.3901648E-03  0.5746089E+06  0.1002455E-08  0.4443017E+00  0.7383811E-03  0.3582532E+06 -0.1570796E+01  0.1645887E-06 -0.1661456E+01
  0.9199999E+00  0.1856855E+06 -0.1570796E+01  0.5716705E+00 -0.2018551E-03  0.5665868E+06 -0.8685271E-09  0.2975622E+00  0.1910156E-02  0.3712612E+06 -0.1570796E+01  0.5870288E-07 -0.1539061E+01
  0.9399999E+00  0.1922091E+06 -0.1570796E+01  0.1220382E+00  0.2156819E-02  0.5584597E+06 -0.5105984E-09  0.6767197E+00  0.3141111E+01  0.3843044E+06 -0.1570796E+01  0.1211185E-06 -0.1787797E+01
  0.9599999E+00  0.1987406E+06 -0.1570796E+01  0.3534568E+00  0.1278917E-02  0.5502251E+06 -0.7470281E-09  0.4794315E+00 -0.1189528E-02  0.3973634E+06 -0.1570796E+01  0.1757216E-07 -0.1012197E+01
  0.9799999E+00  0.2052703E+06 -0.1570796E+01  0.4990864E+00  0.1108287E-03  0.5418934E+06 -0.8940255E-09  0.2248008E+00  0.2502964E-02  0.4104186E+06 -0.1570796E+01  0.4950047E-07 -0.1495467E+01
  0.9999999E+00  0.2117892E+06 -0.1570796E+01  0.6509762E+00 -0.2886032E-03  0.5334654E+06 -0.3932933E-09  0.4744034E+00 -0.3141090E+01  0.4234526E+06 -0.1570796E+01  0.1910914E-06 -0.1463368E+01
  0.1020000E+01  0.2182874E+06 -0.1570796E+01  0.1728918E+00 -0.1257653E-02  0.5249469E+06  0.2054695E-08  0.1056770E+01 -0.1985373E-03  0.4364439E+06 -0.1570796E+01  0.8586370E-07  0.1789465E+01
  0.1040000E+01  0.2247556E+06 -0.1570796E+01  0.5330486E+00 -0.2272150E-03  0.5163408E+06  0.0000000E+00  0.7788315E+00 -0.3141260E+01  0.4493776E+06 -0.1570796E+01  0.1448798E-06 -0.1428899E+01
  0.1060000E+01  0.2311851E+06 -0.1570796E+01  0.3535690E+00 -0.3141587E+01  0.5076538E+06  0.1991308E-08  0.2427705E-01  0.3136486E+01  0.4622327E+06 -0.1570796E+01  0.6715863E-08 -0.2553590E+01
  0.1080000E+01  0.2375665E+06 -0.1570796E+01  0.2505894E+00 -0.3140858E+01  0.4988883E+06 -0.2119963E-08  0.1010744E+00 -0.1792722E-02  0.4749903E+06 -0.1570796E+01  0.7858508E-07 -0.1665748E+01
  0.1100000E+01  0.2438898E+06 -0.1570796E+01  0.7380962E+00 -0.3141510E+01  0.4900526E+06 -0.1800110E-08  0.2990532E+00  0.3141369E+01  0.4876333E+06 -0.1570796E+01  0.7645926E-07 -0.1522054E+01
  0.1120000E+01  0.2501470E+06 -0.1570796E+01  0.1084043E+00 -0.1319609E-02  0.4811483E+06 -0.3569726E-08  0.6947754E-02 -0.8327802E-01  0.5001433E+06 -0.1570796E+01  0.6848863E-07 -0.1180189E+01
  0.1140000E+01  0.2563290E+06 -0.1570796E+01  0.2390176E+00  0.3140595E+01  0.4721811E+06 -0.1650113E-08  0.5164841E+00  0.3139827E+01  0.5125034E+06 -0.1570796E+01  0.1863483E-06  0.1600787E+01
  0.1160000E+01  0.2624250E+06 -0.1570796E+01  0.8108438E-01 -0.3136429E+01  0.4631565E+06  0.4074911E-08  0.8679619E+00  0.3141454E+01  0.5246923E+06 -0.1570796E+01  0.3729944E-07 -0.4995840E-01
  0.1180000E+01  0.2684275E+06 -0.1570796E+01  0.4178143E+00  0.1506471E-03  0.4540786E+06 -0.6573753E-08  0.7826996E+00 -0.3141278E+01  0.5366930E+06 -0.1570796E+01  0.1399465E-06  0.1396895E+01
  0.1200000E+01  0.2743264E+06 -0.1570796E+01  0.1184126E+01  0.3141101E+01  0.4449520E+06 -0.2962068E-08  0.2282037E+00  0.2799966E-02  0.5484873E+06 -0.1570796E+01  0.9010275E-07 -0.1695151E+01
  0.1220000E+01  0.2801132E+06 -0.1570796E+01  0.4819241E+00  0.3141470E+01  0.4357851E+06  0.2691738E-09  0.7083668E+00  0.3140505E+01  0.5600588E+06 -0.1570796E+01  0.3801439E-06 -0.1600200E+01
  0.1240000E+01  0.2857792E+06 -0.1570796E+01  0.1843495E+00  0.3828168E-02  0.4265796E+06 -0.8607177E-09  0.9127160E+00 -0.4743733E-03  0.5713842E+06 -0.1570796E+01  0.5919579E-07  0.1792878E+01
  0.1260000E+01  0.2913127E+06 -0.1570796E+01  0.2285471E+00  0.3141342E+01  0.4173422E+06  0.2376518E-08  0.6500492E+00 -0.3141358E+01  0.5824478E+06 -0.1570796E+01  0.1899533E-07  0.1768192E+01
  0.1280000E+01  0.2967066E+06 -0.1570796E+01  0.2831163E+00  0.2566792E-02  0.4080777E+06  0.4356153E-08  0.1178858E+00 -0.1844479E-02  0.5932326E+06 -0.1570796E+01  0.2943038E-06  0.1577125E+01
  0.1300000E+01  0.3019512E+06 -0.1570796E+01  0.5250471E-01  0.2542906E-02  0.3987920E+06  0.4988477E-08  0.3056302E+00  0.1734918E-02  0.6037185E+06 -0.1570796E+01  0.1721814E-06 -0.1473281E+01
  0.1320000E+01  0.3070371E+06 -0.1570796E+01  0.3275753E+00  0.1787548E-02  0.3894894E+06  0.1978408E-08  0.8298399E+00  0.3140885E+01  0.6138873E+06 -0.1570796E+01  0.2683244E-06 -0.1598567E+01
  0.1340000E+01  0.3119565E+06 -0.1570796E+01  0.3787109E+00 -0.3140676E+01  0.3801775E+06 -0.1866322E-08  0.1179374E+00  0.2296504E-02  0.6237219E+06 -0.1570796E+01  0.4097819E-07 -0.1570796E+01
  0.1360000E+01  0.3166990E+06 -0.1570796E+01  0.3356266E+00  0.3141547E+01  0.3708589E+06 -0.5837370E-08  0.4796544E-01 -0.7475901E-02  0.6332051E+06 -0.1570796E+01  0.2297178E-06 -0.1643837E+01
  0.1380000E+01  0.3212572E+06 -0.1570796E+01  0.5005885E+00 -0.4038826E-03  0.3615402E+06 -0.7966185E-08  0.9054909E+00 -0.4086464E-03  0.6423179E+06 -0.1570796E+01  0.4321698E-06 -0.1583727E+01
  0.1400000E+01  0.3256207E+06 -0.1570796E+01  0.7725851E-02  0.5925125E-02  0.3522281E+06 -0.8610000E-09  0.8925991E-01  0.3135396E+01  0.6510424E+06 -0.1570796E+01  0.1133003E-07  0.1651487E+00
  0.1420000E+01  0.3297822E+06 -0.1570796E+01  0.1588460E+00  0.3698328E-02  0.3429260E+06  0.6262793E-08  0.7644988E-01  0.3129866E+01  0.6593626E+06 -0.1570796E+01  0.3820058E-06 -0.1600056E+01
  0.1440000E+01  0.3337322E+06 -0.1570796E+01  0.5987625E+00  0.3141465E+01  0.3336410E+06 -0.8003478E-10  0.4369929E+00 -0.1117367E-02  0.6672619E+06 -0.1570796E+01  0.2257569E-06 -0.1628583E+01
  0.1460000E+01  0.3374634E+06 -0.1570796E+01  0.1902858E+00 -0.1142691E-02  0.3243767E+06  0.6150524E-08  0.3341295E+00 -0.9704301E-03  0.6747192E+06 -0.1570796E+01  0.1550030E-06 -0.1642960E+01
  0.1480000E+01  0.3409661E+06 -0.1570796E+01  0.4596908E-01 -0.3134912E+01  0.3151406E+06 -0.4841899E-10  0.2414684E+00  0.3141213E+01  0.6817235E+06 -0.1570796E+01  0.3501785E-06 -0.1573456E+01
  0.1500000E+01  0.3442343E+06 -0.1570796E+01  0.2339233E+00  0.1801976E-02  0.3059371E+06  0.1278062E-08  0.1194331E+00 -0.3417589E-02  0.6882562E+06 -0.1570796E+01  0.2796202E-06  0.1530818E+01
  0.1520000E+01  0.3472577E+06 -0.1570796E+01  0.1017134E+00  0.3139493E+01  0.2967717E+06 -0.2480818E-08  0.1011942E+01  0.3141152E+01  0.6943032E+06 -0.1570796E+01  0.4285096E-07 -0.1592532E+01
  0.1540000E+01  0.3500310E+06 -0.1570796E+01  0.8236308E-01 -0.3133325E+01  0.2876501E+06  0.2990488E-08  0.9553109E+00 -0.3141066E+01  0.6998473E+06 -0.1570796E+01  0.1678966E-06  0.1515298E+01
  0.1560000E+01  0.3525460E+06 -0.1570796E+01  0.2469683E+00 -0.3140913E+01  0.2785780E+06 -0.1574748E-09  0.4727488E+00 -0.3141302E+01  0.7048752E+06 -0.1570796E+01  0.8756413E-07 -0.1549523E+01
  0.1580000E+01  0.3547947E+06 -0.1570796E+01  0.1365313E+00 -0.3137975E+01  0.2695606E+06 -0.6014403E-09  0.2938900E+00  0.5192007E-04  0.7093706E+06 -0.1570796E+01  0.1193874E-06 -0.1516163E+01
  0.1600000E+01  0.3567722E+06 -0.1570796E+01  0.6658975E-01  0.3138155E+01  0.2606029E+06 -0.4479219E-08  0.3787209E+00 -0.3139820E+01  0.7133245E+06 -0.1570796E+01  0.1147191E-06 -0.1709249E+01
  0.1620000E+01  0.3584695E+06 -0.1570796E+01  0.1172984E-01 -0.3125331E+01  0.2517106E+06 -0.1257873E-08  0.1267575E+00 -0.3671530E-02  0.7167183E+06 -0.1570796E+01  0.6895719E-07 -0.1604567E+01
  0.1640000E+01  0.3598824E+06 -0.1570796E+01  0.5230396E-01  0.3136633E+01  0.2428892E+06 -0.3549443E-08  0.5171871E+00  0.1947227E-02  0.7195432E+06 -0.1570796E+01  0.2947235E-06 -0.1517051E+01
  0.1660000E+01  0.3610041E+06 -0.1570796E+01  0.2490031E+00  0.3139716E+01  0.2341433E+06 -0.6818264E-08  0.4603808E+00 -0.9611717E-03  0.7217867E+06 -0.1570796E+01  0.8762355E-07 -0.1528269E+01
  0.1680000E+01  0.3618294E+06 -0.1570796E+01  0.2310830E+00  0.3140817E+01  0.2254793E+06 -0.3730456E-08  0.2163527E+00  0.3136691E+01  0.7234366E+06 -0.1570796E+01  0.6737139E-07 -0.1667714E+01
  0.1700000E+01  0.3623536E+06 -0.1570796E+01  0.1688211E+00  0.1547833E-02  0.2169008E+06  0.4282505E-08  0.1390906E+00 -0.1261595E-02  0.7244822E+06 -0.1570796E+01  0.1490298E-07 -0.1586420E+01
  0.1720000E+01  0.3625701E+06 -0.1570796E+01  0.2851567E+00 -0.9364283E-04  0.2084142E+06 -0.4218944E-08  0.9713746E+00  0.3140733E+01  0.7249165E+06 -0.1570796E+01  0.3781904E-07 -0.1397551E+01
  0.1740000E+01  0.3624763E+06 -0.1570796E+01  0.3816342E+00  0.3141033E+01  0.2000235E+06  0.1040336E-07  0.5731257E+00 -0.3138977E+01  0.7247282E+06 -0.1570796E+01  0.3726763E-07  0.1598914E+01
  0.1760000E+01  0.3620675E+06 -0.1570796E+01  0.1924946E+00 -0.3141078E+01  0.1917345E+06  0.1578726E-07  0.3696203E+00 -0.3139044E+01  0.7239106E+06 -0.1570796E+01  0.7450922E-07 -0.1561226E+01
  0.1780000E+01  0.3613398E+06 -0.1570796E+01  0.2917973E+00  0.2764965E-02  0.1835518E+06 -0.2275703E-08  0.4282132E+00 -0.4454203E-04  0.7224569E+06 -0.1570796E+01  0.1154939E-06  0.1557692E+01
  0.1800000E+01  0.3602912E+06 -0.1570796E+01  0.2843469E+00 -0.3140151E+01  0.1754802E+06 -0.5717255E-08  0.2247785E+00 -0.2715350E-02  0.7203594E+06 -0.1570796E+01  0.4859026E-07 -0.1489247E+01
  0.1820000E+01  0.3589183E+06 -0.1570796E+01  0.2278285E+00 -0.3138713E+01  0.1675246E+06 -0.4576964E-08  0.1250611E+00 -0.2836753E-02  0.7176161E+06 -0.1570796E+01  0.4098415E-07 -0.1587840E+01
  0.1840000E+01  0.3572190E+06 -0.1570796E+01  0.3391505E-01  0.6523771E-02  0.1596892E+06 -0.6366223E-08  0.2696891E-01  0.4754442E-01  0.7142194E+06 -0.1570796E+01  0.5665014E-08 -0.1735945E+01
  0.1860000E+01  0.3551918E+06 -0.1570796E+01  0.3596777E-01 -0.2238026E-01  0.1519785E+06  0.1493464E-08  0.1731464E+00  0.3140095E+01  0.7101659E+06 -0.1570796E+01  0.1620508E-06 -0.1567923E+01
  0.1880000E+01  0.3528368E+06 -0.1570796E+01  0.4663654E+00  0.4662391E-03  0.1443967E+06 -0.1216557E-07  0.2231649E+00  0.1880300E-02  0.7054546E+06 -0.1570796E+01  0.2719717E-06  0.1557099E+01
  0.1900000E+01  0.3501517E+06 -0.1570796E+01  0.7220984E-01 -0.3132691E+01  0.1369486E+06 -0.5905252E-08  0.3590519E+00 -0.3140668E+01  0.7000889E+06 -0.1570796E+01  0.1732360E-06  0.1581549E+01
  0.1920000E+01  0.3471375E+06 -0.1570796E+01  0.1007349E+00 -0.3133867E+01  0.1296377E+06  0.1259426E-07  0.5390559E+00 -0.4224759E-02  0.6940625E+06 -0.1570796E+01  0.1062361E-06 -0.1535723E+01
  0.1940000E+01  0.3437953E+06 -0.1570796E+01  0.1705056E+00  0.8501687E-03  0.1224682E+06  0.1808168E-07  0.4359775E+00  0.1504959E-02  0.6873794E+06 -0.1570796E+01  0.2068060E-06 -0.1593315E+01
  0.1960000E+01  0.3401253E+06 -0.1570796E+01  0.1417674E+00 -0.3403887E-02  0.1154443E+06 -0.2684793E-07  0.1233501E+00  0.3133799E+01  0.6800419E+06 -0.1570796E+01  0.1382881E-06 -0.1489892E+01
  0.1980000E+01  0.3361308E+06 -0.1570796E+01  0.4590211E-01  0.1687113E-01  0.1085694E+06 -0.1907887E-07  0.1936272E+00  0.5279959E-02  0.6720544E+06 -0.1570796E+01  0.1193002E-06 -0.1531754E+01
  0.2000000E+01  0.3318123E+06 -0.1570796E+01  0.4860688E-01 -0.6278448E-03  0.1018465E+06  0.2134956E-08  0.5657613E-02 -0.1475230E+00  0.6634211E+06 -0.1570796E+01  0.2328474E-06 -0.1582796E+01
  0.2020000E+01  0.3271744E+06 -0.1570796E+01  0.9115074E-01  0.3159713E-02  0.9528005E+05 -0.6686126E-08  0.2709628E+00  0.5997394E-02  0.6541469E+06 -0.1570796E+01  0.4807826E-07 -0.1193887E+01
  0.2040000E+01  0.3222205E+06 -0.1570796E+01  0.1664363E+00  0.1031394E-02  0.8887250E+05  0.1156782E-07  0.2046853E+00  0.3140661E+01  0.6442434E+06 -0.1570796E+01  0.1047231E-06  0.1481747E+01
  0.2060000E+01  0.3169548E+06 -0.1570796E+01  0.1321381E-01  0.9959973E-02  0.8262709E+05  0.2700806E-08  0.1648276E-02  0.2843264E+01  0.6337152E+06 -0.1570796E+01  0.6064333E-07  0.1385448E+01
  0.2080000E+01  0.3113832E+06 -0.1570796E+01  0.1859191E+00 -0.3713775E-02  0.7654655E+05 -0.1320627E-08  0.2953658E+00  0.3138558E+01  0.6225742E+06 -0.1570796E+01  0.1863483E-06  0.1540805E+01
  0.2100000E+01  0.3055106E+06 -0.1570796E+01  0.5843082E-01 -0.1632215E-01  0.7063387E+05  0.3132385E-08  0.4085428E-01  0.3123757E+01  0.6108331E+06 -0.1570796E+01  0.1109017E-06 -0.1705568E+01
  0.2120000E+01  0.2993435E+06 -0.1570796E+01  0.1161328E-01 -0.2365256E-01  0.6489120E+05  0.1728310E-07  0.2098375E+00  0.3139320E+01  0.5985026E+06 -0.1570796E+01  0.5452812E-07  0.1433730E+01
  0.2140000E+01  0.2928892E+06 -0.1570796E+01  0.6369978E-02  0.5017521E-01  0.5932091E+05  0.8986779E-08  0.1790109E+00  0.3139281E+01  0.5855991E+06 -0.1570796E+01  0.2403101E-06 -0.1555294E+01
  0.2160000E+01  0.2861557E+06 -0.1570796E+01  0.6770853E-01 -0.6591825E-02  0.5392521E+05 -0.3766933E-08  0.1713830E+00 -0.1046141E-02  0.5721355E+06 -0.1570796E+01  0.1396984E-06 -0.1570796E+01
  0.2180000E+01  0.2791512E+06 -0.1570796E+01  0.1067856E+00 -0.3134511E+01  0.4870576E+05  0.2394673E-07  0.1437454E+00  0.4644127E-03  0.5581314E+06 -0.1570796E+01  0.9692916E-07  0.1532354E+01
  0.2200000E+01  0.2718846E+06 -0.1570796E+01  0.5383568E-01 -0.5332102E-02  0.4366449E+05 -0.9915795E-08  0.3042365E-01 -0.9717562E-02  0.5436009E+06 -0.1570796E+01  0.1043248E-06 -0.1588652E+01
  0.2220000E+01  0.2643663E+06 -0.1570796E+01  0.8268420E-01  0.3944616E-02  0.3880262E+05 -0.5652843E-09  0.2035237E-01  0.2905614E-01  0.5285715E+06 -0.1570796E+01  0.7078052E-07 -0.1570796E+01
  0.2240000E+01  0.2566070E+06 -0.1570796E+01  0.3593645E-01  0.3139310E+01  0.3412138E+05  0.2358935E-07  0.1235589E+00 -0.3137826E+01  0.5130552E+06 -0.1570796E+01  0.2048910E-07  0.0000000E+00
  0.2260000E+01  0.2486166E+06 -0.1570796E+01  0.5812838E-01 -0.8367238E-03  0.2962193E+05  0.4349528E-07  0.4061034E-01  0.1192992E-01  0.4970800E+06 -0.1570796E+01  0.1993378E-06 -0.1552107E+01
  0.2280000E+01  0.2404085E+06 -0.1570796E+01  0.1044082E-01  0.3047923E+01  0.2530488E+05 -0.1236145E-07  0.9471884E-01  0.8860375E-02  0.4806683E+06 -0.1570796E+01  0.1454772E-06  0.1519559E+01
  0.2300000E+01  0.2319941E+06 -0.1570796E+01  0.6839199E-01 -0.2370523E-02  0.2117089E+05  0.2576659E-07  0.1181826E+00 -0.3130602E+01  0.4638454E+06 -0.1570796E+01  0.5242775E-07  0.1355981E+01
  0.2320000E+01  0.2233868E+06 -0.1570796E+01  0.7510581E-02  0.3708591E-01  0.1722020E+05 -0.3350558E-07  0.1665235E+00  0.3134388E+01  0.4466368E+06 -0.1570796E+01  0.2335745E-07  0.1490966E+01
  0.2340000E+01  0.2146005E+06 -0.1570796E+01  0.8014262E-01 -0.3135363E+01  0.1345292E+05 -0.2832047E-07  0.1268134E-01  0.2835532E-01  0.4290691E+06 -0.1570796E+01  0.2384259E-06 -0.1562984E+01
  0.2360000E+01  0.2056495E+06 -0.1570796E+01  0.7244378E-02 -0.3357536E-01  0.9868856E+04  0.1478511E-06  0.2724507E-01 -0.3111975E+01  0.4111727E+06 -0.1570796E+01  0.1846369E-06 -0.1520334E+01
  0.2380000E+01  0.1965490E+06 -0.1570796E+01  0.1254518E-01 -0.3132242E+01  0.6467557E+04 -0.6053033E-07  0.7302702E-01  0.3122212E+01  0.3929761E+06 -0.1570796E+01  0.5925620E-07 -0.1633705E+01
  0.2400000E+01  0.1873134E+06 -0.1570796E+01  0.2010350E-02  0.2134722E-02  0.3248388E+04  0.1553059E-06  0.1700108E-01  0.3113710E+01  0.3745107E+06 -0.1570796E+01  0.2136467E-07  0.1927016E+01
  0.2420000E+01  0.1779599E+06 -0.1570796E+01  0.2745352E-01 -0.8762716E-02  0.2104723E+03 -0.9720377E-05  0.2863693E-02 -0.2957390E+01  0.3558093E+06 -0.1570796E+01  0.5615806E-07  0.1670465E+01
  0.2440000E+01  0.1685039E+06 -0.1570796E+01  0.1314851E-01 -0.3128337E+01  0.2647325E+04 -0.3141593E+01  0.2984026E-01 -0.4059948E-01  0.3369030E+06 -0.1570796E+01  0.1200151E-07 -0.1886412E+01
  0.2460000E+01  0.1589633E+06 -0.1570796E+01  0.3653249E-02  0.8766130E-01  0.5326428E+04 -0.3141593E+01  0.1338032E-01 -0.3096461E+01  0.3178278E+06 -0.1570796E+01  0.2999090E-07  0.1121037E+01
  0.2480000E+01  0.1493553E+06 -0.1570796E+01  0.1115172E-01 -0.3125956E+01  0.7828455E+04  0.3141593E+01  0.3303590E-01 -0.1639224E-01  0.2986171E+06 -0.1570796E+01  0.7150811E-07 -0.1570796E+01
  0.2500000E+01  0.1396974E+06 -0.1570796E+01  0.6449772E-02 -0.8951113E-01  0.1015531E+05  0.3141593E+01  0.1054966E-02  0.2405754E+01  0.2793068E+06 -0.1570796E+01  0.7691177E-07  0.1815408E+01
  0.2520000E+01  0.1300079E+06 -0.1570796E+01  0.1371398E-02  0.2632991E+01  0.1230907E+05 -0.3141593E+01  0.1637546E-02 -0.2203960E+01  0.2599337E+06 -0.1570796E+01  0.1603830E-07 -0.1087671E+01
  0.2540000E+01  0.1203053E+06 -0.1570796E+01  0.4730919E-03 -0.1713542E-01  0.1429215E+05  0.3141593E+01  0.7780223E-02 -0.2298516E-01  0.2405340E+06 -0.1570796E+01  0.7580416E-08  0.7419473E+00
  0.2560000E+01  0.1106084E+06 -0.1570796E+01  0.9026447E-03 -0.3222985E-01  0.1610710E+05  0.3141593E+01  0.3482658E-02  0.3018053E+01  0.2211460E+06 -0.1570796E+01  0.5152664E-07  0.1679458E+01
  0.2580000E+01  0.1009362E+06 -0.1570796E+01  0.1435544E-02 -0.2754671E+01  0.1775681E+05 -0.3141593E+01  0.9116750E-02  0.3084446E+01  0.2018076E+06 -0.1570796E+01  0.3754281E-08 -0.1243550E+00
  0.2600000E+01  0.9130784E+05 -0.1570796E+01  0.1040712E-02  0.3366748E+00  0.1924426E+05 -0.3141593E+01  0.5908966E-02  0.1613944E-03  0.1825562E+06 -0.1570796E+01  0.1356026E-07 -0.1292497E+01
  0.2620000E+01  0.8174276E+05 -0.1570796E+01  0.1511229E-01  0.3134651E+01  0.2057282E+05 -0.3141593E+01  0.1324980E-01 -0.3068183E+01  0.1634320E+06 -0.1570796E+01  0.1454772E-07  0.6947383E+00
  0.2640000E+01  0.7226028E+05 -0.1570796E+01  0.1074042E-01 -0.5150016E-02  0.2174596E+05 -0.3141593E+01  0.2669154E-01  0.3138877E+01  0.1444723E+06 -0.1570796E+01  0.5430497E-07  0.1673878E+01
  0.2660000E+01  0.6288015E+05 -0.1570796E+01  0.2924634E-01 -0.3133473E+01  0.2276738E+05  0.3141593E+01  0.2364773E-01  0.5968634E-02  0.1257173E+06 -0.1570796E+01  0.1501713E-07  0.1446441E+01
  0.2680000E+01  0.5362158E+05 -0.1570796E+01  0.2295732E-01 -0.3702165E-01  0.2364104E+05 -0.3141593E+01  0.8709682E-02 -0.4381237E-01  0.1072054E+06 -0.1570796E+01  0.3264946E-07 -0.1513716E+01
  0.2700000E+01  0.4450376E+05 -0.1570796E+01  0.6043481E-02  0.8531662E-01  0.2437105E+05  0.3141593E+01  0.3004733E-01  0.2094932E-01  0.8897508E+05 -0.1570796E+01  0.2980232E-07 -0.1570796E+01
  0.2720000E+01  0.3554631E+05 -0.1570796E+01  0.1014715E-01 -0.3113958E+01  0.2496184E+05 -0.3141593E+01  0.2647922E-02 -0.2850826E+01  0.7106528E+05 -0.1570796E+01  0.1454772E-07  0.2265535E+01
  0.2740000E+01  0.2676789E+05 -0.1570796E+01  0.1180733E-01 -0.3129638E+01  0.2541773E+05  0.3141593E+01  0.2521238E-03  0.2523180E+00  0.5351350E+05 -0.1570796E+01  0.1003065E-07 -0.2761086E+01
  0.2760000E+01  0.1818754E+05 -0.1570796E+01  0.9139093E-02  0.3112579E+01  0.2574356E+05  0.3141593E+01  0.1765262E-01 -0.3457577E-02  0.3635762E+05 -0.1570796E+01  0.1501713E-07 -0.1446441E+01
  0.2780000E+01  0.9823493E+04 -0.1570796E+01  0.2315222E-01  0.1239895E-01  0.2594418E+05  0.3141593E+01  0.1106453E-01 -0.3010203E+01  0.1963423E+05 -0.1570796E+01  0.1117587E-07  0.1570796E+01
  0.2799999E+01  0.1693879E+04 -0.1570795E+01  0.2051267E-01 -0.3138710E+01  0.2602456E+05 -0.3141593E+01  0.6541160E-01  0.5511113E-02  0.3379672E+04 -0.1570795E+01  0.1591445E-07 -0.3587707E+00
  0.2819999E+01  0.6183752E+04  0.1570796E+01  0.5645820E-01 -0.3136694E+01  0.2598991E+05  0.3141593E+01  0.5491286E-01 -0.3265011E-02  0.1237116E+05  0.1570796E+01  0.4165001E-08  0.2034444E+01
  0.2840000E+01  0.1379253E+05  0.1570796E+01  0.6232117E-01 -0.3137736E+01  0.2584545E+05 -0.3141593E+01  0.4078745E-01  0.3130276E+01  0.2758447E+05  0.1570796E+01  0.3558578E-07 -0.1675673E+01
  0.2860000E+01  0.2111562E+05  0.1570796E+01  0.7509398E-02 -0.4827778E-01  0.2559674E+05 -0.3141593E+01  0.4618599E-02 -0.1982392E-01  0.4222656E+05  0.1570796E+01  0.8941182E-07  0.1581213E+01
  0.2880000E+01  0.2813751E+05  0.1570796E+01  0.3451255E-01 -0.3140377E+01  0.2524924E+05 -0.3141593E+01  0.8462152E-02 -0.3087019E+01  0.5626634E+05  0.1570796E+01  0.4098878E-07 -0.1548073E+01
  0.2900000E+01  0.3484291E+05  0.1570796E+01  0.6338377E-03  0.2752704E+01  0.2480858E+05  0.3141593E+01  0.2881372E-01  0.3132060E+01  0.6967346E+05  0.1570796E+01  0.3543924E-07 -0.1623379E+01
  0.2920000E+01  0.4121762E+05  0.1570796E+01  0.1106668E-01  0.1137539E-01  0.2428052E+05 -0.3141593E+01  0.2311891E-01 -0.3003512E-01  0.8241918E+05  0.1570796E+01  0.1041250E-07 -0.2034444E+01
  0.2940000E+01  0.4724813E+05  0.1570796E+01  0.1353100E-02  0.3090825E+01  0.2367088E+05  0.3141593E+01  0.3545393E-01  0.2797497E-02  0.9447677E+05  0.1570796E+01  0.5600339E-07 -0.1504228E+01
  0.2960000E+01  0.5292191E+05  0.1570796E+01  0.7999639E-03 -0.2629062E+00  0.2298552E+05 -0.3141593E+01  0.6492584E-02  0.3079861E+01  0.1058212E+06  0.1570796E+01  0.1192175E-06  0.1559078E+01
  0.2980000E+01  0.5822740E+05  0.1570796E+01  0.1069963E-01 -0.8200191E-02  0.2223030E+05  0.3141593E+01  0.7620116E-01  0.3139290E+01  0.1164292E+06  0.1570796E+01  0.1005828E-06  0.1570796E+01
  0.3000000E+01  0.6315395E+05  0.1570796E+01  0.4334154E-02  0.3118707E+01  0.2141123E+05 -0.3141593E+01  0.1040933E+00  0.3139577E+01  0.1262796E+06  0.1570796E+01  0.3368569E-07  0.1667714E+01
  0.3020000E+01  0.6769228E+05  0.1570796E+01  0.2558267E-01  0.3136299E+01  0.2053428E+05  0.3141593E+01  0.3404427E-01  0.6723065E-03  0.1353535E+06  0.1570796E+01  0.1454772E-07  0.6947383E+00