VARIABLES="w (rad/s)"  
"A   1   1" "B   1   1"
"A   1   2" "B   1   2"
"A   1   3" "B   1   3"
"A   1   4" "B   1   4"
"A   1   5" "B   1   5"
"A   1   6" "B   1   6"
Zone t="Motion of body    1 in DoF   1",I=   420,F=POINT
  0.2000000E-01  0.1333094E+06  0.6436628E-02 -0.1111031E-03 -0.7376002E-10  0.2564573E-01  0.7336111E-04 -0.1106262E-03 -0.2313754E-10  0.2665436E+06  0.1286962E-01  0.6426126E-07  0.3481659E-14
  0.4000000E-01  0.1333699E+06  0.5168382E-01  0.1058578E-03  0.3899913E-09  0.2929211E-01  0.1866230E-03  0.1401901E-03 -0.7246854E-10  0.2666644E+06  0.1033387E+00  0.3725290E-08 -0.2046363E-13
  0.5999999E-01  0.1333935E+06  0.1767961E+00  0.5769730E-04  0.1064327E-08  0.1652908E-01  0.1607138E-03  0.2861023E-05 -0.8032656E-10  0.2667120E+06  0.3534923E+00 -0.6519258E-07  0.8697042E-13
  0.8000000E-01  0.1334650E+06  0.4245871E+00  0.6437302E-04 -0.1746230E-09  0.3074217E-01  0.4082670E-03 -0.2641678E-03  0.3417954E-08  0.2668546E+06  0.8489354E+00 -0.1769513E-07 -0.4570211E-12
  0.9999999E-01  0.1335598E+06  0.8431818E+00 -0.3385544E-04  0.3405148E-09  0.2579927E-01  0.4638583E-03 -0.2956390E-04 -0.5372567E-08  0.2670439E+06  0.1685887E+01 -0.3073364E-07 -0.1421085E-12
  0.1200000E+00  0.1336783E+06  0.1487244E+01  0.1506805E-03  0.3876630E-08  0.3165007E-01  0.6676945E-03 -0.4100800E-03  0.4232861E-08  0.2672811E+06  0.2973649E+01  0.4656613E-07 -0.3956302E-12
  0.1400000E+00  0.1338143E+06  0.2421103E+01  0.3767014E-04  0.2289889E-08  0.2926159E-01  0.7099293E-03 -0.2670288E-04  0.1756940E-07  0.2675533E+06  0.4840839E+01 -0.3725290E-08 -0.6048139E-12
  0.1600000E+00  0.1339738E+06  0.3720489E+01  0.7343292E-04 -0.4693865E-08  0.2412128E-01  0.6505414E-03 -0.3595352E-03 -0.1192093E-07  0.2678721E+06  0.7438866E+01  0.4190952E-07 -0.1091393E-11
  0.1800000E+00  0.1341592E+06  0.5474211E+01 -0.9822845E-04  0.2493616E-08  0.2692652E-01  0.8113137E-03 -0.9155273E-04 -0.2472661E-08  0.2682429E+06  0.1094532E+02  0.4004687E-07 -0.5320543E-12
  0.2000000E+00  0.1343641E+06  0.7791009E+01  0.1192093E-03  0.7147900E-08  0.2840757E-01  0.1102098E-02  0.3452301E-03 -0.2831220E-07  0.2686522E+06  0.1557763E+02  0.4190952E-07 -0.1364242E-12
  0.2200000E+00  0.1345976E+06  0.1080443E+02  0.6198883E-05  0.7427297E-08  0.1619434E-01  0.8156237E-03 -0.2861023E-05 -0.3145076E-07  0.2691192E+06  0.2160275E+02 -0.1862645E-08  0.3851709E-11
  0.2400000E+00  0.1348534E+06  0.1467554E+02  0.1287460E-03  0.6761401E-08  0.1404953E-01  0.7800693E-03  0.4768372E-04  0.3173947E-07  0.2696307E+06  0.2934277E+02 -0.8102506E-07  0.1080480E-10
  0.2600000E+00  0.1351341E+06  0.1960518E+02 -0.1516342E-03  0.2578832E-07  0.1451683E-01  0.8517216E-03 -0.4329681E-03  0.1695007E-07  0.2701919E+06  0.3919923E+02  0.6519258E-08 -0.1300577E-11
  0.2800000E+00  0.1354460E+06  0.2584075E+02 -0.1468658E-03  0.1342967E-07 -0.8583069E-05  0.3477372E-04 -0.2975464E-03  0.5945563E-07  0.2708156E+06  0.5166688E+02 -0.2048910E-07 -0.2164597E-11
  0.3000000E+00  0.1357766E+06  0.3368856E+02  0.4243851E-04  0.1830049E-07  0.6268024E-02  0.5203921E-03 -0.6484985E-04  0.2486631E-07  0.2714763E+06  0.6735799E+02  0.1769513E-07  0.1773515E-11
  0.3200000E+00  0.1361463E+06  0.4352466E+02 -0.2384186E-05 -0.3352761E-07 -0.1365566E-01 -0.8825834E-03  0.5817413E-04  0.4559755E-07  0.2722159E+06  0.8702460E+02  0.7636845E-07  0.9022188E-11
  0.3400000E+00  0.1365494E+06  0.5582936E+02  0.7867813E-04 -0.4227273E-07 -0.1957655E-01 -0.1336701E-02  0.3499985E-03  0.1437589E-06  0.2730219E+06  0.1116271E+03  0.5960464E-07  0.2597517E-10
  0.3600000E+00  0.1369797E+06  0.7118089E+02 -0.1645088E-03 -0.2313405E-07 -0.9144306E-02 -0.8743880E-03 -0.1716614E-04  0.2393871E-06  0.2738819E+06  0.1423213E+03 -0.4749745E-07  0.5271431E-10
  0.3800000E+00  0.1374433E+06  0.9031243E+02  0.1096725E-03 -0.3220513E-07 -0.4296780E-02 -0.4920891E-03  0.1716614E-03 -0.1401454E-06  0.2748089E+06  0.1805737E+03 -0.3725290E-08 -0.5114998E-10
  0.4000000E+00  0.1379483E+06  0.1141434E+03  0.3957748E-04  0.1464039E-06 -0.7763863E-02 -0.7927332E-03  0.1153946E-03 -0.1437962E-06  0.2758183E+06  0.2282218E+03  0.1862645E-08  0.1455191E-11
  0.4200000E+00  0.1384887E+06  0.1438179E+03 -0.2083778E-03 -0.1681968E-06  0.5882263E-02  0.7487865E-03 -0.1583099E-03 -0.4834681E-06  0.2768995E+06  0.2875538E+03  0.4470348E-07 -0.9778886E-10
  0.4400000E+00  0.1390682E+06  0.1807105E+03  0.1239777E-03 -0.2540648E-06  0.1485825E-02  0.3509831E-03  0.2012253E-03 -0.3261864E-06  0.2780578E+06  0.3613175E+03  0.3539026E-07  0.2521119E-09
  0.4600000E+00  0.1396924E+06  0.2265137E+03  0.2813339E-04  0.1045316E-06  0.4453182E-02  0.3430026E-03  0.6294250E-04  0.1987815E-06  0.2793058E+06  0.4528978E+03 -0.3166497E-07  0.2292654E-09
  0.4800000E+00  0.1403646E+06  0.2834675E+03  0.6914139E-04  0.7599591E-07  0.2096653E-02  0.5698102E-03 -0.1926422E-03 -0.1609325E-06  0.2806499E+06  0.5667731E+03  0.4656613E-08  0.1344597E-09
  0.5000000E+00  0.1410809E+06  0.3540854E+03 -0.4673004E-04 -0.5401671E-07  0.2002764E-01  0.3251662E-02  0.1773834E-03  0.7487833E-06  0.2820820E+06  0.7079671E+03 -0.7171184E-07  0.9640643E-10
  0.5200000E+00  0.1418463E+06  0.4414162E+03 -0.1573563E-03  0.1782179E-06  0.1018476E-01  0.2022825E-02 -0.2813339E-03 -0.3138184E-06  0.2836127E+06  0.8825776E+03  0.4190952E-07 -0.1891749E-09
  0.5399999E+00  0.1426668E+06  0.5491431E+03 -0.7438660E-04  0.3017485E-06  0.1656103E-01  0.3444235E-02 -0.1726151E-03  0.1830607E-05  0.2852527E+06  0.1097969E+04  0.2421439E-07  0.3536115E-10
  0.5599999E+00  0.1435437E+06  0.6820281E+03  0.1664162E-03  0.6258487E-08 -0.5850792E-02 -0.7628512E-03 -0.1106262E-03  0.1235008E-05  0.2870061E+06  0.1363664E+04 -0.8661300E-07  0.5704350E-10
  0.5799999E+00  0.1444721E+06  0.8449351E+03  0.1115799E-03  0.4494190E-06 -0.5922794E-02 -0.4774515E-03  0.3490448E-03 -0.5272030E-06  0.2888624E+06  0.1689382E+04 -0.2235174E-07 -0.2574234E-09
  0.5999999E+00  0.1454563E+06  0.1043543E+04  0.1015663E-03 -0.1564622E-06 -0.1071596E-01 -0.2282412E-02 -0.1230240E-03  0.2512335E-05  0.2908300E+06  0.2086482E+04 -0.2793968E-07 -0.8731148E-10
  0.6199999E+00  0.1465006E+06  0.1284542E+04  0.5197525E-04  0.7760524E-06 -0.2828121E-02 -0.6962206E-03  0.8630753E-03 -0.1949370E-05  0.2929184E+06  0.2568342E+04 -0.1583248E-07  0.1714215E-09
  0.6399999E+00  0.1476045E+06  0.1576275E+04 -0.9679794E-04  0.3290176E-06 -0.5506039E-02 -0.1667833E-02  0.1621246E-03  0.7696151E-05  0.2951248E+06  0.3151639E+04  0.1294538E-06  0.8847563E-09
  0.6599999E+00  0.1487604E+06  0.1926327E+04  0.6818771E-04 -0.3235638E-05 -0.1518345E-01 -0.4420806E-02 -0.4472733E-03 -0.2439022E-05  0.2974366E+06  0.3851535E+04 -0.9313226E-09  0.5186302E-09
  0.6799999E+00  0.1499693E+06  0.2343210E+04 -0.7867813E-04 -0.1560450E-05 -0.5344391E-02 -0.1047477E-02  0.6961823E-04 -0.7498264E-06  0.2998532E+06  0.4685046E+04  0.9406358E-07  0.5640322E-09
  0.6999999E+00  0.1512323E+06  0.2836391E+04 -0.5006790E-04  0.2899766E-05  0.6443024E-02  0.2560858E-02 -0.4100800E-04  0.4923343E-05  0.3023786E+06  0.5671121E+04 -0.6519258E-08  0.1772423E-08
  0.7199998E+00  0.1525469E+06  0.3418219E+04 -0.4768372E-05 -0.6115436E-06 -0.1370621E-01 -0.6130252E-02 -0.2002716E-03  0.8261202E-05  0.3050070E+06  0.6834438E+04 -0.1424924E-06 -0.4232860E-08
  0.7399999E+00  0.1539030E+06  0.4098623E+04  0.3705025E-03  0.6682276E-05  0.1123619E-01  0.5936838E-02 -0.1478195E-03  0.7013081E-05  0.3077182E+06  0.8194852E+04 -0.7636845E-07 -0.6461049E-09
  0.7599999E+00  0.1552966E+06  0.4888099E+04 -0.1363754E-03  0.5435943E-05  0.3507614E-02  0.3316582E-02 -0.9822845E-04 -0.1309156E-04  0.3105042E+06  0.9773334E+04  0.1862645E-07  0.3140885E-08
  0.7799999E+00  0.1567251E+06  0.5798009E+04  0.1182556E-03  0.5486011E-05 -0.1346588E-02 -0.4533165E-03 -0.1039505E-03  0.3393888E-05  0.3133608E+06  0.1159261E+05 -0.1210719E-07 -0.4540197E-08
  0.8000000E+00  0.1581848E+06  0.6843920E+04  0.1564026E-03 -0.1907349E-05  0.8306026E-02  0.3078675E-02 -0.3948212E-03  0.1163483E-04  0.3162798E+06  0.1368382E+05 -0.9220093E-07  0.3818422E-08
  0.8199999E+00  0.1596649E+06  0.8039386E+04  0.1420975E-03 -0.2028346E-05  0.4776001E-02  0.2832597E-03 -0.6198883E-04  0.2492666E-05  0.3192390E+06  0.1607400E+05  0.1024455E-07  0.1861481E-08
  0.8399999E+00  0.1611523E+06  0.9396084E+04 -0.1668930E-03  0.3404617E-05  0.1185513E-01  0.6839475E-02  0.1430511E-04  0.6709098E-05  0.3222128E+06  0.1878657E+05  0.5029142E-07  0.5280598E-08
  0.8599999E+00  0.1626415E+06  0.1092672E+05 -0.9584427E-04 -0.1219988E-04  0.1018715E-01  0.6189592E-02 -0.6370544E-03 -0.1876115E-04  0.3251905E+06  0.2184697E+05  0.9499490E-07  0.8009373E-09
  0.8799999E+00  0.1641234E+06  0.1264386E+05  0.3323555E-03  0.3304481E-05 -0.3380775E-03  0.2583317E-02  0.1134872E-03  0.4301070E-05  0.3281529E+06  0.2528023E+05 -0.4936010E-07  0.3483146E-08
  0.8999999E+00  0.1655876E+06  0.1456804E+05 -0.5245209E-04 -0.1823902E-05  0.3297806E-02  0.3257918E-02  0.1831055E-03 -0.3712177E-04  0.3310812E+06  0.2912745E+05  0.8381903E-07  0.1456356E-07
  0.9199999E+00  0.1670167E+06  0.1671105E+05 -0.1478195E-03  0.1551866E-04  0.8348465E-02  0.5614630E-02 -0.6675720E-04 -0.3498554E-04  0.3339372E+06  0.3341212E+05 -0.2235174E-07  0.6319023E-08
  0.9399999E+00  0.1683943E+06  0.1908491E+05  0.1010895E-03 -0.9636878E-05 -0.8284569E-02 -0.8391592E-02  0.4196167E-03  0.8964537E-05  0.3366931E+06  0.3815846E+05 -0.9685755E-07 -0.5471519E-09
  0.9599999E+00  0.1697098E+06  0.2169792E+05 -0.6198883E-04  0.3639221E-04 -0.1143169E-01 -0.8683661E-02  0.1144409E-04 -0.1991272E-04  0.3393225E+06  0.4338282E+05 -0.1676381E-07 -0.8940695E-09
  0.9799999E+00  0.1709467E+06  0.2456096E+05 -0.1430511E-04  0.3878593E-04 -0.7732391E-02 -0.4369025E-02  0.4234314E-03 -0.9392737E-04  0.3417951E+06  0.4910717E+05 -0.5774200E-07  0.1939479E-07
  0.9999999E+00  0.1720862E+06  0.2768822E+05  0.1335144E-04 -0.3612041E-04 -0.1521111E-02  0.2666116E-02 -0.3223419E-03  0.2408027E-04  0.3440729E+06  0.5535984E+05 -0.9499490E-07  0.2793967E-08
  0.1020000E+01  0.1731085E+06  0.3108801E+05  0.1335144E-03  0.3064156E-04 -0.2529144E-02  0.2239752E-02  0.4405975E-03  0.2383232E-04  0.3461181E+06  0.6215739E+05  0.9126961E-07 -0.5699694E-08
  0.1040000E+01  0.1740055E+06  0.3476243E+05 -0.3547668E-03 -0.2963066E-04  0.5892754E-02  0.5351495E-02  0.4940033E-03 -0.4959106E-06  0.3479114E+06  0.6950400E+05 -0.1015142E-06 -0.2179294E-07
  0.1060000E+01  0.1747220E+06  0.3870193E+05 -0.2861023E-05  0.1642704E-04  0.6093979E-03 -0.4503535E-03  0.2937317E-03 -0.4195213E-04  0.3493431E+06  0.7738052E+05  0.1862645E-07 -0.1974404E-07
  0.1080000E+01  0.1752797E+06  0.4291770E+05  0.6675720E-04 -0.1029968E-04  0.8005142E-02  0.1081827E-01  0.1144409E-03  0.1647949E-04  0.3504591E+06  0.8580959E+05  0.1043081E-06 -0.2715736E-07
  0.1100000E+01  0.1756442E+06  0.4741743E+05  0.3747940E-03 -0.1064777E-03 -0.4224777E-02  0.6928920E-03  0.4787445E-03  0.7762908E-04  0.3511878E+06  0.9480616E+05 -0.1210719E-06 -0.2740416E-07
  0.1120000E+01  0.1758153E+06  0.5215618E+05  0.4482269E-04  0.4299163E-04 -0.3516197E-02  0.4790763E-02  0.7019043E-03  0.5874633E-05  0.3515291E+06  0.1042808E+06 -0.1396984E-07 -0.2529472E-07
  0.1140000E+01  0.1757545E+06  0.5714992E+05  0.1306534E-03 -0.1168728E-04 -0.6170273E-03  0.4606146E-02 -0.3948212E-03 -0.2185249E-03  0.3514076E+06  0.1142654E+06  0.1024455E-06 -0.2335757E-07
  0.1160000E+01  0.1754664E+06  0.6236468E+05 -0.3814697E-03 -0.1150513E-03 -0.2831459E-02 -0.6293525E-02 -0.1125336E-03  0.6526946E-04  0.3508323E+06  0.1246915E+06 -0.8102506E-07  0.3078952E-07
  0.1180000E+01  0.1749133E+06  0.6778595E+05  0.9536743E-06 -0.8440016E-06  0.6478310E-02  0.1731357E-01  0.1354218E-03  0.6752013E-05  0.3497259E+06  0.1355308E+06  0.4563481E-07  0.6593763E-08
  0.1200000E+01  0.1741253E+06  0.7338816E+05 -0.3910065E-04  0.8783339E-04 -0.4949570E-02 -0.8538435E-02 -0.1258850E-03  0.1470566E-03  0.3481505E+06  0.1467318E+06  0.1080334E-06  0.1229346E-07
  0.1220000E+01  0.1730634E+06  0.7913764E+05  0.5340576E-04 -0.2181530E-04 -0.2986908E-02 -0.7911391E-02 -0.1049042E-03 -0.2699280E-03  0.3460274E+06  0.1582273E+06 -0.6891787E-07  0.1761131E-07
  0.1240000E+01  0.1717286E+06  0.8500052E+05 -0.1163483E-03 -0.5084991E-04 -0.6332397E-03 -0.1428528E-02 -0.2918243E-03  0.7095337E-05  0.3433585E+06  0.1699490E+06  0.3911555E-07  0.4503876E-07
  0.1260000E+01  0.1701235E+06  0.9094624E+05  0.7629395E-04  0.2042770E-04  0.3459930E-02  0.2853870E-03 -0.4386902E-04 -0.5167007E-04  0.3401497E+06  0.1818372E+06 -0.9126961E-07 -0.1936219E-07
  0.1280000E+01  0.1682875E+06  0.9694262E+05 -0.1068115E-03  0.1953125E-04 -0.3863335E-02 -0.7859496E-02 -0.1640320E-03  0.1318359E-03  0.3364784E+06  0.1938258E+06 -0.1452863E-06 -0.1454353E-06
  0.1300000E+01  0.1662152E+06  0.1029483E+06 -0.1182556E-03  0.1921654E-04  0.4483223E-02  0.5388688E-02 -0.3299713E-03 -0.4178047E-03  0.3323347E+06  0.2058342E+06 -0.2793968E-08 -0.8475034E-08
  0.1320000E+01  0.1638640E+06  0.1089174E+06  0.2384186E-03  0.9504317E-04  0.8993149E-03  0.1633106E-01 -0.5474091E-03  0.1397323E-03  0.3276338E+06  0.2177685E+06  0.9220093E-07  0.5347653E-07
  0.1340000E+01  0.1613001E+06  0.1148149E+06  0.1125336E-03 -0.1929664E-03 -0.4293442E-02 -0.2547157E-01 -0.5531311E-04 -0.4344940E-04  0.3225083E+06  0.2295595E+06 -0.1490116E-07 -0.1559965E-07
  0.1360000E+01  0.1585303E+06  0.1206073E+06 -0.4673004E-04 -0.1880646E-04 -0.3576279E-02 -0.1326179E-02  0.4386902E-04 -0.2593994E-05  0.3169690E+06  0.2411403E+06  0.1210719E-07 -0.5699694E-07
  0.1380000E+01  0.1555972E+06  0.1262681E+06  0.1077652E-03 -0.1756954E-03  0.2050400E-02  0.5889415E-03 -0.2040863E-03  0.3158569E-03  0.3111055E+06  0.2524586E+06  0.9872019E-07  0.5012378E-07
  0.1400000E+01  0.1524667E+06  0.1317430E+06 -0.1344681E-03  0.1121521E-03 -0.5273819E-02 -0.1295423E-01 -0.3242493E-04  0.1214981E-03  0.3048462E+06  0.2634048E+06 -0.1294538E-06 -0.1434237E-07
  0.1420000E+01  0.1491980E+06  0.1370172E+06 -0.3910065E-04 -0.2159977E-03  0.3970146E-02 -0.3717326E-03 -0.2079010E-03 -0.2816772E-03  0.2983114E+06  0.2739501E+06  0.7636845E-07 -0.1110881E-06
  0.1440000E+01  0.1458074E+06  0.1420621E+06 -0.2150536E-03 -0.1785278E-04 -0.2961159E-02 -0.5926437E-02 -0.9727478E-04  0.3034973E-03  0.2915321E+06  0.2840367E+06  0.5494803E-07 -0.8314847E-07
  0.1460000E+01  0.1423108E+06  0.1468511E+06  0.1015663E-03  0.2102470E-03 -0.1389503E-02 -0.1771784E-02 -0.2012253E-03  0.7518767E-04  0.2845410E+06  0.2936117E+06 -0.4749745E-07 -0.1291744E-06
  0.1480000E+01  0.1387410E+06  0.1513706E+06  0.8583069E-04  0.1340866E-03  0.3965378E-02  0.8899821E-02  0.2727509E-03  0.4290771E-03  0.2774034E+06  0.3026482E+06 -0.1164153E-06  0.1006201E-06
  0.1500000E+01  0.1351289E+06  0.1556095E+06  0.1192093E-04  0.3290176E-04 -0.4453659E-03  0.7698297E-02 -0.4005432E-04  0.1316070E-03  0.2701819E+06  0.3111225E+06 -0.2887100E-07  0.3632158E-07
  0.1520000E+01  0.1314747E+06  0.1595477E+06  0.3623962E-04 -0.1797485E-03  0.5655289E-03  0.1851990E-01  0.2126694E-03 -0.3928375E-03  0.2628759E+06  0.3189972E+06  0.7916242E-07 -0.1373142E-06
  0.1540000E+01  0.1278128E+06  0.1631832E+06 -0.3337860E-05  0.5874633E-05  0.1170158E-02 -0.1990766E-02 -0.2431870E-03  0.3671646E-04  0.2555539E+06  0.3262662E+06 -0.7450581E-07  0.1577660E-06
  0.1560000E+01  0.1241593E+06  0.1665130E+06 -0.1263618E-03  0.1316643E-03 -0.4307270E-02  0.6118297E-02 -0.4444122E-03 -0.2499389E-03  0.2482495E+06  0.3329222E+06 -0.3073364E-07  0.1307577E-07
  0.1580000E+01  0.1205297E+06  0.1695329E+06  0.1659393E-03 -0.2237606E-03 -0.3574371E-02 -0.6118383E-02  0.1258850E-03  0.1567078E-03  0.2409924E+06  0.3389604E+06 -0.5215406E-07 -0.1471490E-08
  0.1600000E+01  0.1169392E+06  0.1722462E+06 -0.1287460E-04  0.7247924E-04 -0.3709793E-03 -0.5908203E-02  0.7057190E-04 -0.3005981E-03  0.2338135E+06  0.3443863E+06  0.2328306E-07 -0.1177192E-06
  0.1620000E+01  0.1133946E+06  0.1746563E+06  0.1287460E-04 -0.2788639E-03  0.2121449E-02  0.5622081E-02  0.6294250E-04 -0.4063224E-03  0.2267266E+06  0.3492046E+06 -0.4377216E-07 -0.5582347E-07
  0.1640000E+01  0.1099412E+06  0.1767811E+06 -0.2956390E-04 -0.5239486E-03 -0.4353046E-02 -0.4057082E-02  0.2937317E-03  0.5474090E-04  0.2198222E+06  0.3534532E+06 -0.8381903E-08 -0.1084432E-06
  0.1660000E+01  0.1065598E+06  0.1786181E+06 -0.7629395E-05 -0.3633212E-03  0.5202293E-03 -0.3612632E-02 -0.4863739E-04  0.5129241E-03  0.2130618E+06  0.3571259E+06  0.1676381E-07  0.1855194E-07
  0.1680000E+01  0.1032563E+06  0.1801770E+06 -0.2288818E-04 -0.4005432E-05  0.2372742E-02  0.4106368E-02 -0.3614426E-03 -0.8283233E-03  0.2064567E+06  0.3602426E+06  0.0000000E+00  0.1814961E-06
  0.1700000E+01  0.1000549E+06  0.1814737E+06 -0.1349449E-03  0.2091408E-03  0.1046181E-02  0.4750251E-02  0.3061295E-03 -0.2593994E-04  0.2000550E+06  0.3628356E+06 -0.1001172E-06 -0.1583248E-08
  0.1720000E+01  0.9694820E+05  0.1825185E+06  0.4482269E-04 -0.4674911E-04  0.1886845E-02  0.2009392E-02 -0.1029968E-03  0.3707122E-03  0.1938444E+06  0.3649242E+06  0.4190952E-08  0.6407499E-08
  0.1740000E+01  0.9394275E+05  0.1833231E+06  0.9489059E-04 -0.1070309E-03 -0.1743317E-02  0.2203674E-02  0.1316071E-03 -0.1078605E-03  0.1878349E+06  0.3665337E+06  0.4610047E-07 -0.6319954E-07
  0.1760000E+01  0.9105158E+05  0.1839022E+06 -0.3576279E-04  0.2030945E-03  0.1287460E-04  0.3684234E-03 -0.2670288E-04 -0.2047729E-03  0.1820546E+06  0.3676914E+06 -0.4051253E-07 -0.1311302E-06
  0.1780000E+01  0.8826585E+05  0.1842686E+06  0.9822845E-04  0.3437519E-03  0.7081032E-03 -0.3979034E-02 -0.3108978E-03  0.1086426E-03  0.1764853E+06  0.3684242E+06 -0.4982576E-07 -0.6299465E-07
  0.1800000E+01  0.8558591E+05  0.1844593E+06 -0.1640320E-03  0.1047134E-03 -0.7271767E-03  0.8188247E-03 -0.9441376E-04  0.2643585E-03  0.1711268E+06  0.3688056E+06 -0.3864989E-07  0.1491979E-06
  0.1820000E+01  0.8302910E+05  0.1844189E+06 -0.8201599E-04  0.9285926E-04 -0.2490997E-02  0.3040924E-02  0.8583069E-05 -0.2915954E-03  0.1660153E+06  0.3687247E+06  0.6984919E-08 -0.9492039E-07
  0.1840000E+01  0.8058170E+05  0.1842194E+06  0.1180172E-03 -0.2544403E-04 -0.3412962E-02  0.3640251E-02  0.2098083E-04  0.4667663E-03  0.1611216E+06  0.3683260E+06  0.3818423E-07  0.1011044E-06
  0.1860000E+01  0.7823132E+05  0.1839154E+06  0.1001358E-04  0.8337020E-04 -0.2969980E-02  0.5853652E-02  0.8249283E-04 -0.2305984E-04  0.1564223E+06  0.3677178E+06  0.8381903E-08  0.1022033E-06
  0.1880000E+01  0.7600086E+05  0.1834003E+06  0.2861023E-05  0.3791999E-03 -0.4535437E-02 -0.1792907E-02 -0.2098083E-04 -0.9215545E-03  0.1519628E+06  0.3666886E+06 -0.1583248E-07 -0.1435727E-06
  0.1900000E+01  0.7388452E+05  0.1827067E+06 -0.9965897E-04  0.2654552E-03 -0.4475594E-02  0.4259967E-02  0.1883507E-03  0.1503944E-03  0.1477313E+06  0.3653013E+06 -0.1071021E-07 -0.2300366E-06
  0.1920000E+01  0.7186367E+05  0.1819330E+06  0.7081032E-04 -0.2902221E-03 -0.4571915E-02 -0.5002441E-02  0.4768372E-05  0.7855223E-03  0.1436909E+06  0.3637555E+06 -0.9313226E-09  0.3254413E-06
  0.1940000E+01  0.6994909E+05  0.1810413E+06  0.8773804E-04 -0.1998138E-03  0.5154610E-03 -0.2811270E-02 -0.1192093E-03  0.3237724E-03  0.1398633E+06  0.3619725E+06 -0.2793968E-08 -0.8853151E-07
  0.1960000E+01  0.6812843E+05  0.1800442E+06 -0.1192093E-04 -0.1644897E-03 -0.4024506E-03  0.3364563E-04 -0.5674362E-04  0.1046753E-03  0.1362231E+06  0.3599787E+06 -0.2095476E-07 -0.1588091E-06
  0.1980000E+01  0.6640103E+05  0.1789483E+06 -0.6437302E-05 -0.3162861E-03  0.2571106E-02 -0.3451767E-02  0.1235008E-03 -0.6571197E-03  0.1327697E+06  0.3577874E+06  0.7450581E-08 -0.1622736E-06
  0.2000000E+01  0.6477842E+05  0.1777656E+06  0.9822845E-04 -0.1239777E-04  0.7011890E-03  0.3740310E-02  0.8201599E-04 -0.1211166E-02  0.1295251E+06  0.3554238E+06  0.8381903E-07 -0.4470348E-07
  0.2020000E+01  0.6323533E+05  0.1764978E+06 -0.2384186E-04 -0.1444817E-04 -0.8177757E-04 -0.4565620E-03  0.1664162E-03  0.2408028E-03  0.1264399E+06  0.3528884E+06  0.7916242E-08  0.1711957E-06
  0.2040000E+01  0.6177836E+05  0.1751552E+06 -0.7152557E-05 -0.1546669E-03  0.5197525E-03  0.1082668E-02  0.6103516E-04 -0.6556320E-03  0.1235269E+06  0.3502043E+06 -0.9313226E-08 -0.2013892E-06
  0.2060000E+01  0.6040384E+05  0.1737467E+06  0.8344650E-05  0.2062797E-04  0.1284122E-02  0.3985128E-02  0.3862381E-04  0.6561660E-03  0.1207788E+06  0.3473884E+06  0.1839362E-07 -0.2494082E-07
  0.2080000E+01  0.5910875E+05  0.1722784E+06 -0.8463860E-04 -0.1289367E-04 -0.1375437E-02  0.3221435E-02 -0.8726120E-04  0.3392028E-03  0.1181894E+06  0.3444529E+06 -0.1862645E-08 -0.1220405E-06
  0.2100000E+01  0.5789000E+05  0.1707559E+06 -0.6914139E-05 -0.7910727E-04  0.9577274E-03 -0.5767822E-03 -0.5817413E-04  0.5507468E-03  0.1157526E+06  0.3414086E+06 -0.1187436E-07 -0.5867331E-07
  0.2120000E+01  0.5674412E+05  0.1691854E+06 -0.3242493E-04 -0.1667976E-03  0.4360676E-03  0.1450634E-02 -0.7486343E-04 -0.5782317E-03  0.1134615E+06  0.3382690E+06 -0.2956949E-07  0.7897614E-08
  0.2140000E+01  0.5566803E+05  0.1675722E+06  0.6508827E-04 -0.5234813E-03 -0.1270056E-02  0.1326561E-04  0.5245209E-05  0.1489830E-03  0.1113103E+06  0.3350433E+06  0.1862645E-08 -0.1255609E-06
  0.2160000E+01  0.5465893E+05  0.1659206E+06  0.6556511E-05 -0.4150772E-03 -0.8667707E-03  0.1048508E-02 -0.1437664E-03 -0.3625488E-03  0.1092926E+06  0.3317416E+06  0.2630986E-07  0.2293289E-06
  0.2180000E+01  0.5371371E+05  0.1642353E+06  0.3278255E-04  0.3596687E-03 -0.1237035E-02  0.1596680E-02 -0.5936623E-04  0.4490661E-03  0.1074029E+06  0.3283729E+06  0.4889444E-07 -0.3532693E-06
  0.2200000E+01  0.5282955E+05  0.1625211E+06  0.2479553E-04  0.8287429E-04 -0.2598763E-03  0.1555729E-02  0.3528595E-04 -0.3608703E-03  0.1056348E+06  0.3249455E+06  0.3026798E-07 -0.1844019E-07
  0.2220000E+01  0.5200355E+05  0.1607816E+06  0.3588200E-04 -0.4393100E-03 -0.2994776E-02  0.4529657E-02  0.1258850E-03  0.2244186E-03  0.1039835E+06  0.3214676E+06  0.6053597E-08  0.2687797E-07
  0.2240000E+01  0.5123319E+05  0.1590199E+06  0.2527237E-04 -0.1132202E-03  0.2680659E-02  0.6579589E-03 -0.4053116E-05 -0.6964111E-03  0.1024432E+06  0.3179454E+06 -0.8731149E-08 -0.1919269E-06
  0.2260000E+01  0.5051584E+05  0.1572388E+06  0.1022816E-03 -0.2931213E-03 -0.1703382E-02  0.7403468E-03  0.3194809E-04  0.4741668E-04  0.1010091E+06  0.3143850E+06  0.6635673E-08 -0.1220778E-06
  0.2280000E+01  0.4984917E+05  0.1554413E+06  0.2872944E-04  0.1358986E-03  0.2433419E-02  0.2409210E-02 -0.6389618E-04 -0.9132384E-04  0.9967596E+05  0.3107907E+06 -0.6286427E-08 -0.1613796E-06
  0.2300000E+01  0.4923051E+05  0.1536300E+06  0.7688999E-04 -0.2072811E-03 -0.1740575E-02 -0.2873420E-03  0.4887581E-04  0.5176543E-03  0.9843913E+05  0.3071692E+06  0.9313226E-09 -0.1692213E-06
  0.2320000E+01  0.4865785E+05  0.1518080E+06  0.3564358E-04  0.3838729E-03 -0.2349615E-03  0.1976890E-02 -0.9536743E-06  0.1637268E-03  0.9729402E+05  0.3035268E+06  0.1711305E-07  0.4537403E-07
  0.2340000E+01  0.4812895E+05  0.1499768E+06 -0.7408857E-04  0.2923393E-03  0.3253400E-02  0.2878761E-03  0.9405613E-04 -0.6627845E-03  0.9623661E+05  0.2998659E+06  0.9662472E-08 -0.1525506E-07
  0.2360000E+01  0.4764211E+05  0.1481374E+06  0.1305342E-04  0.2599525E-03  0.1878023E-02 -0.2007599E-02 -0.2253056E-04  0.3961181E-03  0.9526312E+05  0.2961882E+06  0.9662472E-08  0.1758337E-06
  0.2380000E+01  0.4719502E+05  0.1462923E+06  0.2384186E-06 -0.4845904E-03  0.1868963E-02  0.2278823E-02 -0.9846687E-04  0.5606269E-03  0.9436932E+05  0.2924992E+06  0.6286427E-08  0.4433095E-08
  0.2400000E+01  0.4678620E+05  0.1444419E+06  0.2408028E-04 -0.5950928E-04  0.2394378E-02  0.1741791E-02  0.7021427E-04 -0.2815246E-03  0.9355172E+05  0.2887999E+06  0.2677552E-08 -0.1944601E-06
  0.2420000E+01  0.4641394E+05  0.1425865E+06  0.2241135E-04 -0.3531074E-03  0.4691482E-02  0.4141512E-02 -0.5352497E-04  0.4361915E-03  0.9280752E+05  0.2850909E+06  0.1862645E-07  0.1126900E-07
  0.2440000E+01  0.4607673E+05  0.1407274E+06 -0.4786253E-04  0.2024460E-03  0.4118502E-02  0.3268223E-02 -0.1034737E-03 -0.5794143E-03  0.9213323E+05  0.2813733E+06  0.4190952E-08 -0.5453825E-07
  0.2460000E+01  0.4577318E+05  0.1388640E+06 -0.1788139E-06  0.2627563E-03  0.1710832E-02  0.2597065E-02  0.1468658E-03  0.5630493E-04  0.9152637E+05  0.2776481E+06  0.6926712E-08 -0.2978369E-07
  0.2480000E+01  0.4550202E+05  0.1369965E+06 -0.1776218E-04  0.1123428E-03  0.3998935E-02  0.3700218E-02  0.4816055E-04 -0.2601623E-03  0.9098419E+05  0.2739148E+06  0.8847564E-08  0.5312263E-07
  0.2500000E+01  0.4526249E+05  0.1351237E+06 -0.1129508E-04 -0.5960464E-04  0.4877895E-02  0.2975464E-02  0.4494190E-04  0.2813339E-03  0.9050501E+05  0.2701700E+06 -0.3020978E-07  0.2328306E-08
  0.2520000E+01  0.4505362E+05  0.1332418E+06  0.1013279E-04  0.7690429E-04  0.4585028E-02  0.1881752E-02  0.7450581E-05  0.4566192E-03  0.9008737E+05  0.2664076E+06 -0.2619345E-08  0.1173466E-07
  0.2540000E+01  0.4487485E+05  0.1313473E+06 -0.1183152E-04 -0.7509231E-04  0.9519756E-03  0.3715858E-02  0.1617670E-03  0.5983161E-03  0.8972991E+05  0.2626202E+06 -0.7625204E-08  0.2365559E-08
  0.2560000E+01  0.4472624E+05  0.1294360E+06  0.5710125E-04 -0.1599121E-03  0.2548158E-02  0.2615967E-02 -0.2288818E-04  0.4663085E-03  0.8943277E+05  0.2587984E+06 -0.6402843E-08 -0.7510184E-07
  0.2580000E+01  0.4460824E+05  0.1274994E+06 -0.7715821E-04 -0.1045704E-03  0.1950502E-02  0.4358739E-02 -0.1543164E-03 -0.8414839E-03  0.8919680E+05  0.2549270E+06  0.2561137E-08  0.1069251E-06
  0.2600000E+01  0.4452214E+05  0.1255275E+06  0.4303455E-04 -0.4339218E-03  0.2191633E-02  0.1807594E-02 -0.1674294E-03  0.4364013E-03  0.8902459E+05  0.2509848E+06 -0.3899913E-08 -0.9685754E-08
  0.2620000E+01  0.4447073E+05  0.1235013E+06 -0.1040101E-04  0.1211834E-03  0.2853006E-02  0.3766679E-02 -0.4172325E-04 -0.4722404E-03  0.8892197E+05  0.2469333E+06 -0.9953510E-08 -0.3782100E-07
  0.2640000E+01  0.4445893E+05  0.1213877E+06  0.2579391E-04  0.6042480E-04  0.7224530E-03  0.2935638E-02  0.5546212E-04 -0.5740356E-03  0.8889820E+05  0.2427078E+06 -0.3445894E-07 -0.1278520E-06
  0.2660000E+01  0.4449535E+05  0.1191379E+06 -0.4653633E-04 -0.1978683E-03  0.3523976E-03  0.4199629E-02  0.2771616E-04 -0.2739715E-03  0.8897109E+05  0.2382095E+06 -0.2124580E-08  0.2725050E-07
  0.2680000E+01  0.4459694E+05  0.1166566E+06 -0.5798042E-04  0.1162910E-03  0.4725158E-04  0.1672802E-02  0.8118153E-04 -0.1014671E-02  0.8917406E+05  0.2332487E+06  0.8731149E-09  0.1584925E-06
  0.2700000E+01  0.4479657E+05  0.1137353E+06  0.5990267E-05 -0.1789570E-03  0.7329702E-02  0.5667400E-02 -0.1750290E-03 -0.7029533E-03  0.8957318E+05  0.2274082E+06  0.2383604E-07  0.1445878E-06
  0.2720000E+01  0.4517036E+05  0.1098683E+06 -0.2965331E-05  0.5447387E-04  0.7350892E-03  0.4304733E-02  0.1524687E-03 -0.1504517E-03  0.9032060E+05  0.2196765E+06  0.1650187E-07 -0.1646578E-07
  0.2740000E+01  0.4592687E+05  0.1033524E+06 -0.5847216E-04  0.6140708E-04  0.1513690E-01  0.6669855E-02  0.8195639E-04  0.8361816E-03  0.9183337E+05  0.2066494E+06 -0.1618173E-07  0.7527880E-07
  0.2760000E+01  0.4760277E+05  0.8324718E+05 -0.2634525E-04 -0.3290176E-04  0.3441674E-01 -0.3167913E-01 -0.9751320E-04  0.1658249E-03  0.9518461E+05  0.1664511E+06 -0.1594890E-07  0.5526468E-07
  0.2780000E+01  0.1448019E+05  0.1441668E+06  0.3242493E-04  0.2876568E-03 -0.1734686E-01 -0.6825154E-01 -0.1449585E-03 -0.1550960E-03  0.2895708E+05  0.2882477E+06  0.1676381E-07 -0.4919245E-07
  0.2799999E+01  0.3856627E+05  0.1273538E+06 -0.1019239E-04 -0.2737045E-03 -0.1147681E-01 -0.2620220E-01  0.8320808E-04  0.1308441E-03  0.7711548E+05  0.2546369E+06  0.0000000E+00 -0.2868473E-07
  0.2819999E+01  0.4097565E+05  0.1193991E+06 -0.5805492E-04 -0.2285957E-04 -0.6798327E-02 -0.2503526E-01 -0.2384186E-06  0.9412764E-04  0.8193286E+05  0.2387325E+06  0.1583248E-07 -0.1208111E-06
  0.2840000E+01  0.4185838E+05  0.1151873E+06  0.1454353E-04  0.2058410E-03  0.2505183E-03 -0.2009659E-02  0.1914501E-03  0.3629303E-03  0.8369795E+05  0.2303122E+06 -0.1315493E-07 -0.8596106E-07
  0.2860000E+01  0.4233778E+05  0.1122156E+06  0.1081824E-03 -0.1063728E-03 -0.7374287E-03  0.3627586E-03  0.9059906E-05  0.1691055E-03  0.8465634E+05  0.2243707E+06  0.1565786E-07  0.9322537E-08
  0.2880000E+01  0.4265807E+05  0.1098074E+06 -0.5757809E-04 -0.2581787E-03  0.2089143E-03 -0.4382171E-02  0.3987551E-04 -0.4284667E-03  0.8529675E+05  0.2195556E+06  0.4016329E-08 -0.6705521E-08
  0.2900000E+01  0.4290186E+05  0.1077062E+06 -0.7623434E-04  0.1949787E-03 -0.9801090E-03 -0.6341647E-02  0.4053116E-05  0.5254745E-03  0.8578429E+05  0.2153550E+06  0.1920853E-08 -0.3646127E-07
  0.2920000E+01  0.4310504E+05  0.1057951E+06  0.7298589E-04  0.4037856E-04  0.1248479E-02 -0.2177658E-02  0.9387732E-04  0.3091049E-03  0.8619047E+05  0.2115336E+06  0.3783498E-08  0.4215165E-07
  0.2940000E+01  0.4328545E+05  0.1040124E+06  0.7408857E-04 -0.2523422E-04  0.8248389E-03 -0.3012685E-02 -0.4923344E-04  0.2803802E-03  0.8655109E+05  0.2079699E+06  0.1396984E-08  0.9994021E-07
  0.2960000E+01  0.4345364E+05  0.1023253E+06  0.6681681E-04 -0.1905441E-03  0.9828210E-03 -0.4136924E-02 -0.1382828E-04  0.7339477E-04  0.8688725E+05  0.2045971E+06 -0.6111804E-08  0.1006201E-06
  0.2980000E+01  0.4361443E+05  0.1007100E+06  0.5245209E-05  0.4831314E-04  0.2926230E-02 -0.1609964E-02  0.1310110E-03  0.5598640E-03  0.8720885E+05  0.2013671E+06 -0.1228182E-07 -0.6938353E-08
  0.3000000E+01  0.4377074E+05  0.9915147E+05 -0.1579523E-04 -0.4005432E-04 -0.9583831E-03 -0.5270004E-02  0.6222725E-04  0.4177093E-03  0.8752105E+05  0.1982509E+06  0.1664739E-07 -0.9080394E-07
  0.3020000E+01  0.4392555E+05  0.9764138E+05 -0.7730722E-04  0.7344245E-04 -0.7870793E-03 -0.2978019E-02 -0.4863739E-04  0.4896164E-04  0.8783062E+05  0.1952320E+06  0.3667083E-08 -0.6328337E-07