VARIABLES="w (rad/s)"  
"A   1   1" "B   1   1"
"A   1   2" "B   1   2"
"A   1   3" "B   1   3"
"A   1   4" "B   1   4"
"A   1   5" "B   1   5"
"A   1   6" "B   1   6"
Zone t="Motion of body    1 in DoF   1",I=   420,F=POINT
  0.2000000E-01  0.1332222E+06  0.6431840E-02  0.4911423E-04  0.4787580E-10  0.2935219E-01  0.8443288E-04  0.4339218E-03  0.3612513E-10  0.2663695E+06  0.1286007E-01  0.4563481E-07 -0.6501466E-14
  0.4000000E-01  0.1332817E+06  0.5165060E-01 -0.1168251E-03 -0.3534660E-09  0.3123999E-01  0.1780646E-03 -0.7152557E-04  0.2444722E-09  0.2664883E+06  0.1032722E+00 -0.7823110E-07 -0.1705303E-14
  0.5999999E-01  0.1333092E+06  0.1766742E+00  0.1907349E-04 -0.1475564E-09  0.2247238E-01  0.2166944E-03 -0.1544952E-03  0.7543712E-09  0.2665430E+06  0.3532488E+00 -0.8288771E-07 -0.6565414E-13
  0.8000000E-01  0.1333804E+06  0.4242999E+00 -0.1287460E-04 -0.1000008E-08  0.3795624E-01  0.5024439E-03 -0.4186630E-03 -0.2910383E-08  0.2666852E+06  0.8483588E+00 -0.1061708E-06 -0.2728484E-13
  0.9999999E-01  0.1334750E+06  0.8426233E+00  0.7390976E-04 -0.3565219E-08  0.3010988E-01  0.4770028E-03  0.2737045E-03 -0.4115281E-08  0.2668747E+06  0.1684771E+01 -0.6984919E-07  0.1136868E-13
  0.1200000E+00  0.1335932E+06  0.1486243E+01  0.1492500E-03  0.1746230E-09  0.2732325E-01  0.5231322E-03 -0.1869202E-03 -0.5294568E-08  0.2671113E+06  0.2971649E+01  0.1862645E-07  0.3751665E-12
  0.1400000E+00  0.1337315E+06  0.2419474E+01 -0.6198883E-04 -0.5166512E-08  0.2150345E-01  0.4916022E-03  0.5626678E-04  0.6828922E-08  0.2673872E+06  0.4837590E+01 -0.1396984E-07 -0.1718945E-11
  0.1600000E+00  0.1338895E+06  0.3717966E+01 -0.2079010E-03 -0.9406357E-08  0.2242136E-01  0.6448708E-03  0.8773804E-04  0.2160668E-07  0.2677034E+06  0.7433828E+01  0.8288771E-07 -0.2219167E-11
  0.1800000E+00  0.1340752E+06  0.5470520E+01  0.8487701E-04 -0.1718290E-08  0.2775574E-01  0.9133997E-03 -0.1087189E-03 -0.4568137E-08  0.2680744E+06  0.1093796E+02 -0.4842877E-07  0.1964508E-11
  0.2000000E+00  0.1342794E+06  0.7785696E+01 -0.1068115E-03  0.2479646E-07  0.2238894E-01  0.9432191E-03 -0.3623962E-04 -0.9778885E-09  0.2684832E+06  0.1556700E+02 -0.3445894E-07 -0.1728040E-11
  0.2200000E+00  0.1345132E+06  0.1079706E+02 -0.1373291E-03  0.3022141E-08  0.1561642E-01  0.6962594E-03 -0.8964539E-04 -0.1116656E-07  0.2689502E+06  0.2158801E+02 -0.5867332E-07  0.5352376E-11
  0.2400000E+00  0.1347676E+06  0.1466544E+02 -0.3623962E-04  0.3553927E-07  0.1966953E-01  0.8524818E-03 -0.2355576E-03 -0.2134591E-07  0.2694590E+06  0.2932257E+02  0.4656613E-08 -0.4365574E-11
  0.2600000E+00  0.1350491E+06  0.1959172E+02 -0.2064705E-03 -0.2366956E-07  0.7699966E-02  0.3620870E-03 -0.2202988E-03  0.2009794E-07  0.2700219E+06  0.3917233E+02 -0.2048910E-07 -0.4611138E-11
  0.2800000E+00  0.1353598E+06  0.2582289E+02 -0.1730919E-03 -0.2034008E-07 -0.1094818E-02  0.2094429E-04 -0.1201630E-03  0.3468245E-07  0.2706432E+06  0.5163105E+02 -0.4656613E-08  0.1005901E-10
  0.3000000E+00  0.1356904E+06  0.3366519E+02  0.3337860E-04  0.1816079E-07 -0.2479553E-04  0.5935826E-04 -0.3929138E-03  0.8661299E-08  0.2713042E+06  0.6731121E+02 -0.1229346E-06 -0.7230482E-11
  0.3200000E+00  0.1360605E+06  0.4349434E+02  0.2431870E-04  0.4500151E-07 -0.6182671E-02 -0.3587153E-03  0.1659393E-03  0.7748604E-07  0.2720438E+06  0.8696404E+02 -0.4749745E-07  0.3783498E-11
  0.3400000E+00  0.1364621E+06  0.5579017E+02  0.8678436E-04 -0.4828907E-07 -0.2639294E-01 -0.1996074E-02 -0.9918213E-04 -0.1814403E-06  0.2728472E+06  0.1115487E+03 -0.7450581E-08  0.2319211E-10
  0.3600000E+00  0.1368920E+06  0.7113081E+02 -0.2956390E-04  0.3084540E-07 -0.7952213E-02 -0.5628213E-03  0.1688004E-03 -0.2380460E-06  0.2737062E+06  0.1422209E+03  0.5774200E-07  0.2095476E-10
  0.3800000E+00  0.1373557E+06  0.9024867E+02 -0.3576279E-04 -0.1698732E-07 -0.1578331E-02 -0.1772663E-03  0.3728867E-03 -0.2746284E-06  0.2746334E+06  0.1804460E+03  0.2421439E-07  0.1382432E-11
  0.4000000E+00  0.1378602E+06  0.1140624E+03 -0.1249313E-03  0.1009554E-06 -0.9791851E-02 -0.7390477E-03 -0.3318787E-03 -0.1505017E-06  0.2756421E+06  0.2280597E+03  0.1490116E-07 -0.2983143E-10
  0.4200000E+00  0.1383991E+06  0.1437148E+03 -0.1344681E-03 -0.7197260E-07 -0.2885342E-02 -0.2972617E-03 -0.4053116E-03 -0.8292496E-07  0.2767203E+06  0.2873473E+03  0.1396984E-07 -0.6875779E-11
  0.4400000E+00  0.1389789E+06  0.1805803E+03  0.6818771E-04  0.1360476E-06 -0.1371384E-02  0.2524912E-04 -0.3938675E-03  0.1360476E-06  0.2778786E+06  0.3610577E+03  0.8381903E-08  0.9204085E-10
  0.4600000E+00  0.1396030E+06  0.2263499E+03  0.5054474E-04 -0.1019612E-06 -0.3194809E-03  0.1515366E-03 -0.2603531E-03  0.5757809E-06  0.2791275E+06  0.4525703E+03 -0.1173466E-06 -0.4351022E-10
  0.4800000E+00  0.1402733E+06  0.2832598E+03 -0.5292892E-04 -0.7152557E-08  0.1780033E-02  0.3900307E-03  0.3032684E-03  0.1215935E-06  0.2804674E+06  0.5663576E+03 -0.3725290E-07  0.5238689E-10
  0.5000000E+00  0.1409884E+06  0.3538234E+03 -0.7629395E-05  0.2812594E-06  0.2015924E-01  0.3221126E-02 -0.4415512E-03 -0.1676380E-06  0.2818970E+06  0.7074437E+03 -0.1583248E-07  0.2328306E-09
  0.5200000E+00  0.1417539E+06  0.4410872E+03 -0.1940727E-03  0.2014637E-06  0.7832050E-02  0.1469633E-02  0.6675720E-05  0.1146793E-05  0.2834275E+06  0.8819210E+03  0.8381903E-07 -0.1324224E-10
  0.5399999E+00  0.1425749E+06  0.5487322E+03  0.3671646E-04  0.8227674E-06  0.7186413E-02  0.1555071E-02  0.2965927E-03 -0.1625418E-05  0.2850689E+06  0.1097148E+04  0.2700835E-07  0.2553861E-09
  0.5599999E+00  0.1434487E+06  0.6815105E+03  0.4291534E-04  0.1424849E-05 -0.2886772E-02 -0.1631838E-03 -0.1020432E-03  0.2257228E-05  0.2868159E+06  0.1362629E+04 -0.3166497E-07  0.2078013E-09
  0.5799999E+00  0.1443761E+06  0.8442875E+03 -0.2431870E-04 -0.1063049E-05  0.1416206E-02  0.2586709E-03  0.4768372E-04 -0.1823604E-05  0.2886708E+06  0.1688088E+04 -0.4284084E-07  0.1772423E-09
  0.5999999E+00  0.1453600E+06  0.1042739E+04  0.1606941E-03  0.1944601E-05 -0.1120520E-01 -0.2896790E-02 -0.2861023E-05 -0.4380941E-06  0.2906376E+06  0.2084874E+04 -0.1303852E-07  0.2881279E-09
  0.6199999E+00  0.1464047E+06  0.1283549E+04 -0.2336502E-04 -0.1436621E-05 -0.4975796E-02 -0.1310522E-02  0.2031326E-03 -0.5728006E-06  0.2927267E+06  0.2566354E+04  0.3725290E-08 -0.5683978E-09
  0.6399999E+00  0.1475053E+06  0.1575033E+04  0.3576279E-04  0.2331733E-05 -0.7393837E-02 -0.2104130E-02  0.4291534E-04 -0.7534026E-06  0.2949261E+06  0.3149147E+04  0.2421439E-07 -0.5960464E-09
  0.6599999E+00  0.1486596E+06  0.1924792E+04 -0.7629395E-05 -0.1632571E-05 -0.1039982E-01 -0.2365468E-02  0.4129410E-03 -0.6058215E-05  0.2972344E+06  0.3848465E+04 -0.5401671E-07 -0.1056469E-09
  0.6799999E+00  0.1498682E+06  0.2341326E+04 -0.1673698E-03 -0.4357099E-06 -0.1088572E-01 -0.2304997E-02 -0.5722046E-04 -0.5066394E-06  0.2996513E+06  0.4681284E+04  0.6798655E-07 -0.4848698E-09
  0.6999999E+00  0.1511312E+06  0.2834098E+04 -0.1425743E-03  0.2190471E-06  0.8811951E-03  0.3973096E-04 -0.2307892E-03  0.6258487E-07  0.3021762E+06  0.5666538E+04  0.9313226E-08 -0.1487206E-08
  0.7199998E+00  0.1524429E+06  0.3415417E+04  0.3814697E-05 -0.1823902E-05 -0.9254456E-02 -0.4447381E-02  0.3204346E-03  0.4935263E-05  0.3047992E+06  0.6828825E+04  0.5587935E-07  0.7753259E-09
  0.7399999E+00  0.1537967E+06  0.4095208E+04 -0.2183914E-03  0.4476904E-05  0.8638859E-02  0.3594690E-02  0.2393723E-03  0.4895925E-05  0.3075055E+06  0.8188026E+04 -0.6239861E-07  0.1938315E-09
  0.7599999E+00  0.1551896E+06  0.4883995E+04  0.1072884E-03  0.2106428E-05  0.5059719E-02  0.1835265E-02 -0.3881454E-03 -0.2106428E-04  0.3102911E+06  0.9765115E+04  0.7543713E-07 -0.1128064E-08
  0.7799999E+00  0.1566169E+06  0.5793104E+04 -0.1230240E-03 -0.8670687E-05  0.5211830E-03 -0.5216824E-03 -0.2527237E-03  0.4835128E-05  0.3131450E+06  0.1158280E+05  0.3818423E-07  0.5312030E-08
  0.8000000E+00  0.1580759E+06  0.6838058E+04  0.1902580E-03  0.4935264E-05 -0.2343655E-02 -0.2959776E-02  0.7362366E-03 -0.1511574E-04  0.3160614E+06  0.1367209E+05 -0.3166497E-07 -0.6379559E-08
  0.8199999E+00  0.1595519E+06  0.8032377E+04  0.8058548E-04 -0.1246333E-05  0.1873970E-02  0.1756156E-02  0.5054474E-04 -0.3387093E-04  0.3190132E+06  0.1606000E+05  0.2607703E-07  0.4295725E-08
  0.8399999E+00  0.1610375E+06  0.9387770E+04  0.1788139E-03 -0.7159709E-05  0.4878044E-03 -0.1778912E-03 -0.2574921E-04  0.4035472E-04  0.3219837E+06  0.1877001E+05 -0.8195639E-07 -0.8849891E-08
  0.8599999E+00  0.1625262E+06  0.1091699E+05  0.2985001E-03  0.1507044E-04  0.1385641E-01  0.7114117E-02  0.1955032E-03  0.1168728E-04  0.3249594E+06  0.2182749E+05  0.9965152E-07 -0.5206092E-08
  0.8799999E+00  0.1640075E+06  0.1263250E+05  0.1621246E-04  0.1285076E-04  0.8380890E-02  0.4669232E-02 -0.1382828E-03 -0.3671646E-05  0.3279207E+06  0.2525748E+05 -0.2663583E-06  0.4405155E-08
  0.8999999E+00  0.1654700E+06  0.1455480E+05  0.6961823E-04  0.2258420E-04  0.1271439E-01  0.1157625E-01  0.5340576E-04  0.2617836E-04  0.3308454E+06  0.2910095E+05 -0.6798655E-07 -0.2933666E-08
  0.9199999E+00  0.1668948E+06  0.1669556E+05 -0.1430511E-04  0.6799697E-05  0.9351730E-02  0.1012694E-01 -0.1316071E-03  0.2083778E-05  0.3336940E+06  0.3338122E+05  0.6705523E-07  0.8139758E-08
  0.9399999E+00  0.1682711E+06  0.1906707E+05  0.1296997E-03 -0.2017021E-05 -0.3791809E-02 -0.2842319E-02 -0.3719330E-03  0.6185531E-04  0.3364463E+06  0.3812271E+05  0.1117587E-06 -0.2626329E-08
  0.9599999E+00  0.1695858E+06  0.2167747E+05  0.1621246E-03  0.8354185E-05 -0.2394676E-02 -0.2578468E-02 -0.2708435E-03  0.2883911E-04  0.3390750E+06  0.4334189E+05  0.8754432E-07  0.1050532E-07
  0.9799999E+00  0.1708217E+06  0.2453756E+05 -0.2899170E-03  0.3165960E-04 -0.1268578E-01 -0.1107560E-01  0.4367828E-03 -0.6308555E-05  0.3415451E+06  0.4906039E+05 -0.2235174E-07  0.7986090E-08
  0.9999999E+00  0.1719611E+06  0.2766158E+05  0.1087189E-03  0.1537800E-04 -0.2532005E-02 -0.2022028E-02 -0.5397797E-03 -0.1502037E-04  0.3438226E+06  0.5530662E+05  0.6519258E-07 -0.6286426E-08
  0.1020000E+01  0.1729809E+06  0.3105772E+05 -0.3719330E-04 -0.2444029E-04  0.4354477E-02  0.9334974E-02 -0.9536743E-04 -0.5106926E-05  0.3458622E+06  0.6209674E+05  0.5029142E-07  0.6412156E-08
  0.1040000E+01  0.1738755E+06  0.3472816E+05  0.1306534E-03 -0.9918212E-05  0.2243042E-02  0.3062248E-02  0.1258850E-03  0.7587432E-04  0.3476513E+06  0.6943545E+05 -0.1396984E-07 -0.1089647E-07
  0.1060000E+01  0.1745908E+06  0.3866351E+05  0.8678436E-04  0.7505892E-04  0.3863335E-02  0.2952065E-02 -0.6351471E-03 -0.1096821E-03  0.3490815E+06  0.7730348E+05  0.3632158E-07 -0.1061242E-07
  0.1080000E+01  0.1751489E+06  0.4287468E+05  0.7915497E-04 -0.7209777E-05  0.3872871E-02  0.9226712E-02  0.2689362E-03  0.1544952E-04  0.3501972E+06  0.8572369E+05 -0.1303852E-07 -0.1282431E-07
  0.1100000E+01  0.1755131E+06  0.4736964E+05 -0.1935959E-03  0.2622604E-06 -0.4198074E-02 -0.8127450E-03  0.4463196E-03  0.3199577E-04  0.3509256E+06  0.9471066E+05 -0.7916242E-07 -0.1331791E-07
  0.1120000E+01  0.1756851E+06  0.5210335E+05  0.1764297E-03 -0.7823943E-04 -0.6676674E-02 -0.5348320E-02 -0.3051758E-04 -0.4592895E-04  0.3512695E+06  0.1041753E+06 -0.2048910E-07  0.2659857E-07
  0.1140000E+01  0.1756237E+06  0.5709162E+05 -0.1974106E-03 -0.4049778E-04  0.9859085E-02  0.1405273E-01 -0.1716614E-04  0.9784697E-05  0.3511459E+06  0.1141485E+06 -0.2793968E-08  0.2813525E-07
  0.1160000E+01  0.1753343E+06  0.6230046E+05 -0.3423691E-03  0.1991272E-04 -0.6399155E-02 -0.9791525E-02 -0.5741119E-03 -0.8075713E-04  0.3505678E+06  0.1245630E+06 -0.4842877E-07  0.4753470E-07
  0.1180000E+01  0.1747815E+06  0.6771591E+05 -0.1430511E-04  0.5936145E-04  0.2882004E-02  0.9094681E-02 -0.9918213E-04 -0.8046149E-04  0.3494628E+06  0.1353903E+06 -0.2169982E-06  0.1703389E-07
  0.1200000E+01  0.1739958E+06  0.7331207E+05 -0.1907349E-03  0.2574920E-04 -0.1441002E-02 -0.4131030E-02 -0.1049042E-03  0.1350403E-03  0.3478913E+06  0.1465796E+06  0.1583248E-07 -0.1955777E-07
  0.1220000E+01  0.1729358E+06  0.7905552E+05  0.3185272E-03 -0.8144378E-05  0.2268791E-02 -0.9217109E-02  0.2117157E-03  0.2908706E-05  0.3457711E+06  0.1580628E+06  0.2142042E-07  0.3749505E-07
  0.1240000E+01  0.1716029E+06  0.8491220E+05  0.2632141E-03 -0.3311157E-04  0.2890587E-02  0.6688537E-02 -0.5722046E-04 -0.8750915E-04  0.3431071E+06  0.1697722E+06 -0.9499490E-07 -0.7448718E-07
  0.1260000E+01  0.1700006E+06  0.9085177E+05  0.8773804E-04  0.2919960E-03  0.1944542E-02  0.9995154E-02  0.2746582E-03 -0.2751732E-03  0.3399030E+06  0.1816481E+06 -0.2076849E-06  0.1114793E-07
  0.1280000E+01  0.1681661E+06  0.9684175E+05  0.3767014E-03  0.3845214E-04 -0.4281998E-02 -0.4362792E-02  0.4158020E-03 -0.1635742E-03  0.3362352E+06  0.1936243E+06 -0.7171184E-07 -0.1078844E-06
  0.1300000E+01  0.1660949E+06  0.1028412E+06 -0.8583069E-05  0.6260871E-04  0.2292633E-02  0.1395554E-01  0.6885529E-03  0.3136634E-03  0.3320943E+06  0.2056195E+06 -0.1797453E-06  0.3450550E-07
  0.1320000E+01  0.1637467E+06  0.1088042E+06  0.1077652E-03 -0.7301330E-04  0.2960205E-02  0.6716594E-02 -0.4444122E-03  0.5425643E-03  0.3273996E+06  0.2175418E+06 -0.1024455E-07 -0.6392597E-07
  0.1340000E+01  0.1611867E+06  0.1146963E+06  0.5912781E-04  0.1316261E-03 -0.7758141E-02 -0.2147487E-01 -0.8335114E-03  0.1252365E-03  0.3222807E+06  0.2293220E+06 -0.4004687E-07 -0.1628604E-06
  0.1360000E+01  0.1584202E+06  0.1204832E+06  0.9536743E-04  0.2204895E-04 -0.1515388E-02  0.1037792E-01  0.7438660E-04  0.1115417E-03  0.3167504E+06  0.2408923E+06  0.4097819E-07 -0.6206333E-07
  0.1380000E+01  0.1554910E+06  0.1261389E+06 -0.3585815E-03 -0.8488655E-04  0.5321503E-03  0.7626628E-02 -0.8201599E-04  0.4264068E-03  0.3108931E+06  0.2522002E+06  0.4097819E-07  0.5912035E-07
  0.1400000E+01  0.1523650E+06  0.1316091E+06  0.2202988E-03 -0.2583503E-03 -0.4667282E-02 -0.1259308E-01 -0.6313324E-03  0.8010864E-04  0.3046432E+06  0.2631376E+06 -0.2700835E-07 -0.1017004E-06
  0.1420000E+01  0.1491005E+06  0.1368790E+06 -0.1029968E-03 -0.7989882E-04  0.2944946E-02 -0.3730191E-02  0.1621246E-03  0.2193832E-03  0.2981162E+06  0.2736742E+06  0.2700835E-07  0.4099681E-07
  0.1440000E+01  0.1457128E+06  0.1419196E+06  0.1606941E-03  0.1572418E-03 -0.1501560E-02 -0.2408066E-02  0.1955032E-03 -0.4325866E-03  0.2913426E+06  0.2837518E+06  0.4656613E-08  0.1166761E-06
  0.1460000E+01  0.1422190E+06  0.1467048E+06  0.7057190E-04 -0.6265639E-04 -0.2274990E-02  0.2426195E-02  0.6532669E-03 -0.5137824E-03  0.2843573E+06  0.2933198E+06 -0.1378357E-06 -0.1631677E-06
  0.1480000E+01  0.1386531E+06  0.1512210E+06  0.1697540E-03 -0.2237129E-03  0.1531601E-02  0.4965438E-02 -0.2002716E-04 -0.5758666E-03  0.2772278E+06  0.3023492E+06 -0.4377216E-07 -0.3721565E-07
  0.1500000E+01  0.1350453E+06  0.1554574E+06 -0.2527237E-04  0.7867812E-04 -0.1183510E-02 -0.5548238E-02 -0.2937317E-03 -0.8583068E-05  0.2700139E+06  0.3108185E+06 -0.2235174E-07  0.8940696E-07
  0.1520000E+01  0.1313954E+06  0.1593936E+06 -0.1363754E-03 -0.2420807E-03  0.1457214E-02  0.8169860E-02  0.1659393E-03  0.5508422E-04  0.2627172E+06  0.3186887E+06  0.1443550E-06 -0.6228685E-07
  0.1540000E+01  0.1277369E+06  0.1630275E+06 -0.1521111E-03  0.2592182E-03  0.2416134E-02  0.9447879E-02  0.3423691E-03  0.6462097E-04  0.2554027E+06  0.3259546E+06 -0.8288771E-07  0.2007931E-07
  0.1560000E+01  0.1240879E+06  0.1663554E+06  0.1354218E-03 -0.1822471E-03 -0.1305580E-02  0.4598579E-02  0.6103516E-04 -0.3689575E-03  0.2481063E+06  0.3326082E+06  0.1471490E-06 -0.9734183E-07
  0.1580000E+01  0.1204623E+06  0.1693746E+06 -0.1716614E-04 -0.2938270E-04 -0.4353046E-02  0.1530914E-02 -0.2555847E-03  0.9492874E-04  0.2408578E+06  0.3386443E+06  0.6519258E-08 -0.4708767E-07
  0.1600000E+01  0.1168748E+06  0.1720873E+06 -0.1225471E-03 -0.2212524E-04  0.1466751E-02 -0.3484344E-02 -0.9536743E-04  0.1098633E-02  0.2336851E+06  0.3440691E+06  0.1862645E-08 -0.1117587E-06
  0.1620000E+01  0.1133325E+06  0.1744974E+06  0.1950264E-03 -0.3391170E-03  0.3848076E-02  0.7647513E-04 -0.2403259E-03 -0.3136253E-03  0.2266027E+06  0.3488868E+06  0.1024455E-07 -0.1161732E-06
  0.1640000E+01  0.1098815E+06  0.1766218E+06 -0.6389618E-04 -0.1047897E-03 -0.4591942E-02  0.8023452E-03 -0.1688004E-03  0.5630492E-03  0.2197032E+06  0.3531352E+06 -0.6612390E-07  0.3971159E-07
  0.1660000E+01  0.1065032E+06  0.1784591E+06 -0.1492500E-03 -0.2374649E-03 -0.7438660E-03 -0.1613178E-02  0.9632111E-04 -0.2390480E-03  0.2129486E+06  0.3568085E+06 -0.5960464E-07  0.9275971E-08
  0.1680000E+01  0.1032023E+06  0.1800191E+06 -0.3147125E-04 -0.8571624E-04  0.4110813E-02  0.2045975E-02 -0.4434586E-03  0.4646301E-03  0.2063487E+06  0.3599267E+06  0.5122274E-08 -0.1095235E-06
  0.1700000E+01  0.1000039E+06  0.1813165E+06  0.4768372E-04  0.1677990E-03  0.2895355E-02  0.3628349E-02  0.2679825E-03  0.2302170E-03  0.1999535E+06  0.3625209E+06 -0.3166497E-07 -0.1187436E-06
  0.1720000E+01  0.9689953E+05  0.1823628E+06 -0.1149178E-03  0.1771545E-03 -0.9384155E-03  0.2910747E-02 -0.1964569E-03  0.1968384E-04  0.1937470E+06  0.3646130E+06  0.4144385E-07 -0.1169368E-06
  0.1740000E+01  0.9389621E+05  0.1831692E+06 -0.1435280E-03 -0.3567695E-04 -0.2353191E-02 -0.1719131E-02 -0.7820129E-04 -0.1725769E-03  0.1877421E+06  0.3662258E+06 -0.4749745E-07 -0.1458451E-07
  0.1760000E+01  0.9100754E+05  0.1837498E+06 -0.6771088E-04  0.5958557E-04 -0.9617805E-03 -0.2999420E-02  0.2050400E-03  0.4582214E-03  0.1819667E+06  0.3673870E+06 -0.4842877E-07 -0.1393258E-06
  0.1780000E+01  0.8822396E+05  0.1841178E+06  0.1096725E-04 -0.2546310E-05  0.4911423E-03 -0.5374412E-02  0.2603531E-03 -0.2037048E-04  0.1764014E+06  0.3681231E+06 -0.4703179E-07 -0.8951872E-07
  0.1800000E+01  0.8554509E+05  0.1843108E+06  0.3051758E-04  0.2085686E-03  0.1041889E-02 -0.3012657E-03 -0.3814697E-04 -0.7827758E-03  0.1710456E+06  0.3685088E+06 -0.3399327E-07  0.1508742E-06
  0.1820000E+01  0.8298923E+05  0.1842732E+06  0.5245209E-04  0.2855205E-03 -0.2110004E-02  0.4712390E-03 -0.5340576E-04 -0.1579475E-03  0.1659357E+06  0.3684330E+06  0.1862645E-07 -0.2237409E-06
  0.1840000E+01  0.8054276E+05  0.1840761E+06  0.4458427E-04  0.1070404E-03  0.2220631E-02  0.1390648E-02 -0.2145767E-04 -0.7492827E-03  0.1610440E+06  0.3680392E+06  0.4656613E-08 -0.7197259E-07
  0.1860000E+01  0.7819372E+05  0.1837739E+06  0.8106232E-05  0.1516628E-03 -0.3802538E-02  0.4604873E-02 -0.5722046E-04  0.7077598E-03  0.1563473E+06  0.3674351E+06  0.6239861E-07  0.1732260E-07
  0.1880000E+01  0.7596403E+05  0.1832623E+06  0.1502037E-04 -0.3908538E-03 -0.2264261E-02 -0.2244720E-02 -0.2765656E-04  0.5378723E-05  0.1518893E+06  0.3664125E+06 -0.2607703E-07 -0.1103058E-06
  0.1900000E+01  0.7384902E+05  0.1825709E+06  0.3623962E-04 -0.1739502E-03 -0.3658533E-02  0.4267215E-03  0.6484985E-04 -0.5454062E-03  0.1476608E+06  0.3650301E+06  0.5122274E-08 -0.5485489E-07
  0.1920000E+01  0.7182899E+05  0.1818003E+06 -0.7152557E-05  0.2352905E-03 -0.3193140E-02 -0.2252197E-02 -0.5102158E-04  0.5163574E-03  0.1436218E+06  0.3634900E+06 -0.3445894E-07  0.1788139E-07
  0.1940000E+01  0.6991484E+05  0.1809124E+06 -0.4267693E-04 -0.2349663E-03  0.3666639E-02  0.5541134E-03 -0.1602173E-03 -0.1036072E-03  0.1397948E+06  0.3617144E+06  0.4190952E-08 -0.1065992E-06
  0.1960000E+01  0.6809488E+05  0.1799180E+06 -0.5388260E-04 -0.1476669E-03  0.1933098E-02  0.1084137E-02 -0.5340576E-04  0.2299118E-03  0.1361564E+06  0.3597257E+06  0.2700835E-07 -0.1588091E-06
  0.1980000E+01  0.6636807E+05  0.1788248E+06  0.1287460E-04  0.3351688E-03 -0.1804829E-03 -0.8591651E-04  0.1282692E-03 -0.1227379E-03  0.1327038E+06  0.3575407E+06 -0.2235174E-07 -0.1069531E-06
  0.2000000E+01  0.6471785E+05  0.1776304E+06 -0.3075600E-04  0.1916885E-03 -0.1200914E-02  0.2858162E-02  0.1344681E-03  0.6675719E-04  0.1294039E+06  0.3551527E+06  0.8614734E-08 -0.1844019E-06
  0.2020000E+01  0.6317461E+05  0.1763696E+06 -0.1130104E-03  0.6646157E-04  0.4847050E-03  0.2046824E-02 -0.4386902E-04 -0.2870369E-03  0.1263186E+06  0.3526327E+06 -0.2724119E-07  0.1448579E-06
  0.2040000E+01  0.6171721E+05  0.1750354E+06 -0.4076958E-04 -0.3015518E-04  0.1425743E-03  0.3460064E-02  0.6341934E-04  0.6245041E-03  0.1234048E+06  0.3499658E+06 -0.1629815E-08 -0.1842901E-06
  0.2060000E+01  0.6034252E+05  0.1736352E+06  0.6198883E-05  0.2465534E-03  0.1629591E-02  0.3589267E-02  0.6484985E-04 -0.5599021E-03  0.1206562E+06  0.3471659E+06  0.2817251E-07 -0.2302229E-06
  0.2080000E+01  0.5904736E+05  0.1721738E+06  0.2098083E-04  0.4562377E-04 -0.1497030E-02  0.4582214E-03  0.1053810E-03  0.7934569E-03  0.1180666E+06  0.3442440E+06  0.1257285E-07  0.6005167E-07
  0.2100000E+01  0.5782787E+05  0.1706599E+06  0.5745888E-04  0.3244400E-03 -0.4847050E-03 -0.7590293E-03  0.1735687E-03 -0.2563476E-03  0.1156285E+06  0.3412166E+06  0.2281740E-07  0.6454064E-07
  0.2120000E+01  0.5668160E+05  0.1690975E+06  0.2765656E-04  0.3709983E-03 -0.2685785E-03  0.2122879E-04 -0.6222725E-04 -0.5539702E-03  0.1133366E+06  0.3380937E+06 -0.4423782E-08 -0.1559779E-06
  0.2140000E+01  0.5560517E+05  0.1674920E+06 -0.1025200E-03  0.2193928E-03  0.2976656E-03  0.2587814E-02 -0.1177788E-03 -0.5816459E-03  0.1111845E+06  0.3348831E+06 -0.2793968E-08 -0.1395121E-06
  0.2160000E+01  0.5459506E+05  0.1658495E+06  0.2968311E-04  0.3089904E-03  0.7560253E-03  0.1066017E-02  0.7486343E-04  0.1036148E-02  0.1091650E+06  0.3316003E+06  0.2398156E-07 -0.7241964E-07
  0.2180000E+01  0.5364874E+05  0.1641740E+06 -0.5006790E-05 -0.3638267E-04 -0.1169562E-02 -0.3898143E-03  0.1239777E-04 -0.1559257E-03  0.1072726E+06  0.3282497E+06 -0.4656613E-08 -0.1664832E-06
  0.2200000E+01  0.5276357E+05  0.1624688E+06 -0.5650520E-04 -0.1688957E-03 -0.2484679E-02  0.9000777E-03  0.6651878E-04  0.4028320E-03  0.1055029E+06  0.3248411E+06 -0.4074536E-07  0.1249835E-06
  0.2220000E+01  0.5193638E+05  0.1607383E+06  0.2622604E-05 -0.1079750E-03  0.1437187E-02  0.2449550E-02 -0.2789497E-04  0.4234314E-05  0.1038492E+06  0.3213806E+06 -0.2328306E-08  0.9303912E-07
  0.2240000E+01  0.5116466E+05  0.1589862E+06  0.4184246E-04 -0.6942749E-04  0.9838343E-03  0.3843078E-02 -0.6866455E-04 -0.2371216E-03  0.1023061E+06  0.3178777E+06  0.1187436E-07 -0.8761882E-07
  0.2260000E+01  0.5044549E+05  0.1572164E+06 -0.9536743E-06  0.2166080E-03 -0.4355907E-03  0.1660662E-02  0.1122952E-03 -0.2176857E-03  0.1008683E+06  0.3143399E+06  0.2328306E-07 -0.2315268E-07
  0.2280000E+01  0.4977675E+05  0.1554319E+06  0.7319450E-04 -0.3805160E-03  0.1858592E-02  0.1954765E-02 -0.3623962E-04  0.1935196E-03  0.9953108E+05  0.3107722E+06  0.1396984E-07  0.1274049E-06
  0.2300000E+01  0.4915586E+05  0.1536353E+06 -0.2443790E-04  0.8664130E-04 -0.3632426E-02  0.1659345E-02  0.1363754E-03  0.2127647E-03  0.9828991E+05  0.3071802E+06  0.3259629E-08 -0.3213063E-07
  0.2320000E+01  0.4858120E+05  0.1518262E+06  0.7867813E-05 -0.5641937E-04 -0.2182126E-02 -0.4867553E-04  0.5984306E-04  0.2079773E-03  0.9714069E+05  0.3035639E+06  0.7101335E-08  0.8642672E-07
  0.2340000E+01  0.4805009E+05  0.1500087E+06 -0.2551079E-04 -0.2677917E-04  0.9087920E-03  0.2239408E-02 -0.2121925E-04  0.1001987E-02  0.9607880E+05  0.2999292E+06 -0.1117587E-07  0.2048537E-06
  0.2360000E+01  0.4756015E+05  0.1481846E+06 -0.2247095E-04 -0.1114082E-03  0.9579062E-03  0.2315941E-02  0.8344650E-05 -0.1665497E-03  0.9509918E+05  0.2962830E+06 -0.1152512E-07  0.1846254E-06
  0.2380000E+01  0.4711027E+05  0.1463551E+06 -0.3576279E-06 -0.2837181E-03  0.5624890E-03  0.2253856E-02  0.2419949E-04  0.2042770E-04  0.9419952E+05  0.2926250E+06  0.6402843E-08 -0.9974463E-07
  0.2400000E+01  0.4669816E+05  0.1445212E+06 -0.1788139E-05  0.4726410E-03  0.1215696E-02  0.3205490E-02  0.2038479E-04 -0.3044128E-03  0.9337566E+05  0.2889582E+06 -0.1990702E-07 -0.2235174E-07
  0.2420000E+01  0.4632203E+05  0.1426851E+06  0.5006790E-05 -0.1153946E-04  0.3415346E-02  0.1657066E-02 -0.7200241E-04 -0.1384735E-03  0.9262369E+05  0.2852876E+06  0.5878974E-08  0.1239590E-06
  0.2440000E+01  0.4598030E+05  0.1408475E+06  0.5131960E-04 -0.1105308E-03  0.2838314E-02 -0.5573081E-03  0.1175404E-03  0.2257156E-03  0.9194052E+05  0.2816138E+06 -0.5064066E-08 -0.3181398E-07
  0.2460000E+01  0.4567195E+05  0.1390078E+06 -0.4154444E-04  0.4574775E-04  0.1131058E-02  0.2638120E-02 -0.6961823E-04 -0.1290321E-03  0.9132383E+05  0.2779355E+06 -0.1094304E-07 -0.1076795E-06
  0.2480000E+01  0.4539558E+05  0.1371643E+06  0.2080202E-04  0.8987426E-04  0.2263427E-02  0.1704063E-02  0.1850128E-03 -0.3547668E-04  0.9077130E+05  0.2742505E+06  0.6577466E-08 -0.1847744E-07
  0.2500000E+01  0.4514989E+05  0.1353187E+06  0.2905726E-04 -0.3802776E-03  0.5155832E-02  0.3679990E-02  0.1865625E-04 -0.4315376E-03  0.9028014E+05  0.2705596E+06 -0.5820766E-10  0.7683411E-07
  0.2520000E+01  0.4493403E+05  0.1334700E+06  0.6484985E-04 -0.3376579E-03  0.2632797E-02  0.3059349E-02  0.1320243E-03  0.6176376E-03  0.8984838E+05  0.2668637E+06 -0.4656613E-08  0.1196936E-06
  0.2540000E+01  0.4474714E+05  0.1316170E+06 -0.7051229E-04 -0.4759883E-03  0.4200935E-02  0.1811905E-02  0.1065731E-03 -0.2131653E-03  0.8947480E+05  0.2631592E+06  0.9546056E-08 -0.4967674E-07
  0.2560000E+01  0.4458949E+05  0.1297555E+06 -0.3260374E-04  0.3527832E-03  0.3339291E-02  0.4449463E-02  0.6145239E-04 -0.6054687E-03  0.8915945E+05  0.2594379E+06 -0.5558832E-08  0.6198882E-07
  0.2580000E+01  0.4446079E+05  0.1278803E+06 -0.3412366E-04  0.2521992E-03  0.2371579E-02  0.4640464E-02 -0.2670288E-04 -0.3001785E-03  0.8890210E+05  0.2556885E+06  0.6111804E-08  0.9611248E-08
  0.2600000E+01  0.4436202E+05  0.1259778E+06  0.2539158E-04  0.2045631E-03  0.2863824E-02  0.1529884E-02 -0.5331635E-04  0.7637023E-03  0.8870449E+05  0.2518850E+06 -0.2328306E-09  0.4842877E-07
  0.2620000E+01  0.4429433E+05  0.1240355E+06  0.1123995E-03 -0.8870124E-04 -0.1030996E-02  0.3413124E-02 -0.2165437E-03  0.1449203E-03  0.8856924E+05  0.2480020E+06 -0.1143781E-07 -0.1220032E-07
  0.2640000E+01  0.4426168E+05  0.1220338E+06 -0.3392994E-04 -0.1623917E-03 -0.2242044E-02  0.1306686E-02  0.7772446E-04 -0.1132965E-03  0.8850391E+05  0.2440002E+06  0.1248554E-07  0.1094118E-06
  0.2660000E+01  0.4427094E+05  0.1199342E+06  0.5438924E-05 -0.2917290E-04  0.2935097E-02  0.5876436E-02 -0.5370378E-04  0.4616928E-03  0.8852257E+05  0.2398019E+06 -0.8149073E-09 -0.2105720E-07
  0.2680000E+01  0.4433480E+05  0.1176601E+06 -0.8508563E-05  0.2006340E-03  0.1252368E-02  0.1193581E-02 -0.5185604E-04 -0.7667541E-05  0.8865017E+05  0.2352555E+06  0.2214801E-07  0.1247972E-08
  0.2700000E+01  0.4447999E+05  0.1150642E+06  0.1655519E-04  0.3270149E-03  0.8859560E-02  0.1152534E-01  0.3737211E-04 -0.1699447E-03  0.8894025E+05  0.2300658E+06 -0.1769513E-07  0.7166527E-07
  0.2720000E+01  0.4477030E+05  0.1117781E+06  0.1905859E-04  0.2684784E-03  0.3503010E-02  0.8981704E-02 -0.6514788E-04 -0.8560180E-04  0.8952101E+05  0.2234956E+06 -0.1749140E-07  0.3799796E-07
  0.2740000E+01  0.4538973E+05  0.1065527E+06  0.3010035E-05 -0.9668349E-04  0.1933166E-01  0.2315308E-01 -0.4404783E-04 -0.3083420E-03  0.9075938E+05  0.2130488E+06 -0.5704351E-08 -0.2551824E-08
  0.2760000E+01  0.4705835E+05  0.9139520E+05  0.9298325E-05 -0.8817672E-04  0.1054478E-01  0.7899054E-02 -0.1517534E-03 -0.8686065E-04  0.9409656E+05  0.1827440E+06  0.1338776E-07 -0.1285225E-08
  0.2780000E+01  0.1967030E+05  0.1462130E+06  0.6675720E-05  0.1259327E-03 -0.6226969E-01 -0.1214521E+00  0.8678436E-04  0.2598190E-03  0.3933432E+05  0.2923332E+06 -0.1350418E-07 -0.1423992E-07
  0.2799999E+01  0.3980158E+05  0.1239986E+06 -0.5781651E-05  0.1869201E-03 -0.1641357E-01 -0.3790206E-01 -0.4458427E-04 -0.7476805E-04  0.7958516E+05  0.2479272E+06 -0.9080395E-08  0.8214263E-07
  0.2819999E+01  0.4158803E+05  0.1172253E+06 -0.1746416E-04 -0.2568340E-03 -0.5801260E-02 -0.2145572E-01 -0.8761883E-04 -0.9143828E-04  0.8315741E+05  0.2343856E+06 -0.5005859E-08  0.1181848E-07
  0.2840000E+01  0.4225126E+05  0.1135765E+06  0.1472235E-04  0.1530266E-03 -0.1151621E-01 -0.1220285E-01  0.7283688E-04  0.5579375E-03  0.8448327E+05  0.2270911E+06 -0.3317837E-08  0.1190230E-06
  0.2860000E+01  0.4261875E+05  0.1109234E+06  0.4070997E-04  0.8864402E-04  0.3424168E-02  0.2686596E-02  0.9465218E-04  0.3545761E-03  0.8521816E+05  0.2217863E+06  0.1507578E-07 -0.5327164E-08
  0.2880000E+01  0.4287091E+05  0.1087203E+06  0.2497435E-04  0.1098633E-03 -0.3902137E-02 -0.8782195E-02 -0.2920628E-05 -0.4641723E-03  0.8572232E+05  0.2173818E+06  0.1059379E-07 -0.7912516E-07
  0.2900000E+01  0.4306932E+05  0.1067642E+06  0.3132224E-04  0.1604080E-03 -0.7011294E-03 -0.4252195E-02  0.1549721E-04  0.2267837E-03  0.8611901E+05  0.2134711E+06  0.1862645E-08  0.1026317E-06
  0.2920000E+01  0.4324163E+05  0.1049660E+06 -0.2223253E-04 -0.9607313E-04  0.5288720E-03 -0.1698685E-03 -0.6312132E-04 -0.5346679E-03  0.8646341E+05  0.2098763E+06  0.1210719E-07  0.8430331E-07
  0.2940000E+01  0.4339945E+05  0.1032725E+06  0.5418062E-04 -0.1429939E-03  0.2934337E-03 -0.4634685E-02 -0.1549721E-05  0.1093483E-03  0.8677910E+05  0.2064900E+06  0.2240995E-07  0.6982124E-07
  0.2960000E+01  0.4354861E+05  0.1016542E+06 -0.2503395E-05  0.1566696E-03  0.7551312E-03 -0.3415679E-02 -0.2384186E-06 -0.6464385E-03  0.8707712E+05  0.2032548E+06 -0.7566996E-08 -0.6753950E-07
  0.2980000E+01  0.4369374E+05  0.1000953E+06 -0.2264977E-05  0.1150989E-03  0.1483500E-02  0.8738994E-03 -0.3838539E-04 -0.2273559E-03  0.8736725E+05  0.2001378E+06  0.1129229E-07 -0.1387671E-07
  0.3000000E+01  0.4383886E+05  0.9858703E+05 -0.1341105E-04  0.1602173E-03 -0.2380908E-02 -0.3547668E-02  0.2002716E-03 -0.5207061E-03  0.8765738E+05  0.1971225E+06  0.4004687E-07  0.5029142E-07
  0.3020000E+01  0.4398401E+05  0.9712030E+05 -0.1907349E-04 -0.2606487E-03 -0.1075506E-02 -0.1465969E-02 -0.1676083E-03 -0.1065636E-03  0.8794770E+05  0.1941900E+06  0.5762558E-08  0.5625188E-08