VARIABLES="w (rad/s)"  
"abs(F   1   1)" "angle(F   1   1)"
"abs(F   1   2)" "angle(F   1   2)"
"abs(F   1   3)" "angle(F   1   3)"
"abs(F   1   4)" "angle(F   1   4)"
"abs(F   1   5)" "angle(F   1   5)"
"abs(F   1   6)" "angle(F   1   6)"
Zone t="Diffraction force - beta =   0.000 deg",I=    50,F=POINT
  0.1000000E+00  0.5883888E+04 -0.1570795E+01  0.3339201E-03  0.3304209E+00  0.2764448E+04 -0.3130682E+01  0.1053277E-02  0.3113339E+01  0.1808090E+05 -0.1570796E+01  0.1678575E-04 -0.1559433E+01
  0.1387755E+00  0.1130521E+05 -0.1570790E+01  0.2186456E-03 -0.1579876E+01  0.5314130E+04 -0.3121071E+01  0.4255445E-02 -0.3025138E+01  0.3479302E+05 -0.1570790E+01  0.4661308E-04 -0.1536719E+01
  0.1775510E+00  0.1844992E+05 -0.1570771E+01  0.8593826E-03 -0.2805885E+01  0.8654465E+04 -0.3108947E+01  0.1554673E-03 -0.1177346E+01  0.5689683E+05 -0.1570770E+01  0.8670541E-04 -0.1586420E+01
  0.2163265E+00  0.2728870E+05 -0.1570713E+01  0.1125291E-02 -0.2006892E+01  0.1273497E+05 -0.3094702E+01  0.7207857E-02  0.3103115E+01  0.8436538E+05 -0.1570713E+01  0.3964159E-03  0.1610359E+01
  0.2551020E+00  0.3779078E+05 -0.1570578E+01  0.1358949E-02  0.2161282E+01  0.1747902E+05 -0.3078725E+01  0.6818522E-02 -0.1686371E+01  0.1171883E+06 -0.1570576E+01  0.1635131E-03 -0.1552941E+01
  0.2938775E+00  0.4992046E+05 -0.1570296E+01  0.2573946E-02 -0.5519974E+00  0.2279561E+05 -0.3061421E+01  0.3626669E-01 -0.2606220E+01  0.1553496E+06 -0.1570292E+01  0.2693891E-03 -0.1520838E+01
  0.3326530E+00  0.6364598E+05 -0.1569771E+01  0.6650456E-02  0.1701684E+01  0.2857002E+05 -0.3043150E+01  0.6595773E-02  0.1703551E+01  0.1988662E+06 -0.1569763E+01  0.3964391E-04  0.2265535E+01
  0.3714286E+00  0.7893497E+05 -0.1568867E+01  0.4830128E-02  0.7876799E+00  0.3467897E+05 -0.3024257E+01  0.2514151E-01  0.4508536E-02  0.2477680E+06 -0.1568852E+01  0.7027820E-03  0.1574829E+01
  0.4102041E+00  0.9575983E+05 -0.1567407E+01  0.8032558E-02  0.2743070E+01  0.4098972E+05 -0.3005042E+01  0.1981991E-01 -0.2363787E+01  0.3021169E+06 -0.1567380E+01  0.1089392E-02  0.1593781E+01
  0.4489796E+00  0.1140959E+06 -0.1565171E+01  0.1328030E-01  0.1953841E+01  0.4736573E+05 -0.2985757E+01  0.5121171E-01  0.5703408E+00  0.3620010E+06 -0.1565125E+01  0.1438751E-02  0.1561273E+01
  0.4877551E+00  0.1339169E+06 -0.1561896E+01  0.3379644E-02  0.8395363E+00  0.5368520E+05 -0.2966655E+01  0.2673534E-01  0.1212417E+01  0.4275074E+06 -0.1561824E+01  0.9243457E-04  0.6998929E+00
  0.5265306E+00  0.1551997E+06 -0.1557280E+01  0.3867083E-02  0.4864132E+00  0.5982105E+05 -0.2947901E+01  0.5706649E-01  0.8363905E+00  0.4987698E+06 -0.1557170E+01  0.8365239E-03  0.1618836E+01
  0.5653061E+00  0.1779068E+06 -0.1550984E+01  0.9260821E-02 -0.2689505E+01  0.6563862E+05 -0.2929544E+01  0.6727271E-01 -0.2881188E+01  0.5758973E+06 -0.1550824E+01  0.3398205E-03 -0.1152572E+01
  0.6040816E+00  0.2019842E+06 -0.1542644E+01  0.2726155E-01  0.1521665E+01  0.7106344E+05 -0.2911785E+01  0.1267557E+00 -0.9344509E+00  0.6589106E+06 -0.1542418E+01  0.1405428E-02  0.1492012E+01
  0.6428572E+00  0.2273637E+06 -0.1531877E+01  0.2150168E-01  0.1394472E+01  0.7598343E+05 -0.2894585E+01  0.1142871E+00 -0.2672418E+01  0.7478721E+06 -0.1531568E+01  0.1812584E-02 -0.1478667E+01
  0.6816327E+00  0.2539104E+06 -0.1518294E+01  0.1702437E-01 -0.1243636E+01  0.8034147E+05 -0.2878038E+01  0.1036135E+00 -0.1977850E+01  0.8425671E+06 -0.1517881E+01  0.1952073E-02  0.1769237E+01
  0.7204082E+00  0.2814712E+06 -0.1501515E+01  0.1032504E-01  0.2510761E+01  0.8406948E+05 -0.2862109E+01  0.1067254E+00  0.1042247E+01  0.9427692E+06 -0.1500978E+01  0.2947666E-02 -0.1604366E+01
  0.7591837E+00  0.3097819E+06 -0.1481182E+01  0.2895037E-01  0.1476423E+01  0.8713280E+05 -0.2846825E+01  0.2356026E+00  0.3016774E+01  0.1047816E+07 -0.1480497E+01  0.2780431E-02  0.1583296E+01
  0.7979592E+00  0.3385364E+06 -0.1456980E+01  0.3609836E-01 -0.3171129E-01  0.8948273E+05 -0.2832071E+01  0.1072833E+00  0.2510894E+01  0.1156961E+07 -0.1456126E+01  0.5864686E-03 -0.7266423E+00
  0.8367347E+00  0.3672899E+06 -0.1428656E+01  0.3850637E-01 -0.2588634E+01  0.9114109E+05 -0.2817999E+01  0.5346165E-01  0.2767251E+00  0.1268800E+07 -0.1427606E+01  0.8298912E-03  0.1038292E+01
  0.8755102E+00  0.3955122E+06 -0.1396040E+01  0.1971576E-01  0.3062911E+01  0.9205539E+05 -0.2804334E+01  0.1908079E+00 -0.1756987E+01  0.1381748E+07 -0.1394772E+01  0.2754075E-03  0.2743070E+01
  0.9142857E+00  0.4225563E+06 -0.1359071E+01  0.4317204E-01  0.1551568E+01  0.9229508E+05 -0.2791337E+01  0.1041433E+00 -0.6171350E+00  0.1493551E+07 -0.1357560E+01  0.1119749E-02 -0.2369410E+01
  0.9530612E+00  0.4476765E+06 -0.1317819E+01  0.7911915E-02  0.2388693E+01  0.9184402E+05 -0.2778812E+01  0.9241955E-01 -0.2626975E+01  0.1601564E+07 -0.1316042E+01  0.2181384E-02  0.1854590E+01
  0.9918368E+00  0.4700798E+06 -0.1272506E+01  0.7652497E-01 -0.1673060E+01  0.9072377E+05 -0.2766670E+01  0.1348780E+00  0.1028183E+01  0.1702858E+07 -0.1270445E+01  0.2957996E-02 -0.2020715E+01
  0.1030612E+01  0.4889078E+06 -0.1223506E+01  0.4810967E-01  0.2531813E+01  0.8903707E+05 -0.2755229E+01  0.7983097E-01 -0.1286057E+01  0.1793934E+07 -0.1221134E+01  0.2063391E-02  0.9151007E+00
  0.1069388E+01  0.5033804E+06 -0.1171362E+01  0.5871936E-01  0.1366909E+01  0.8677842E+05 -0.2744212E+01  0.1554764E+00 -0.3079842E+01  0.1871542E+07 -0.1168659E+01  0.3278594E-02 -0.1666751E+01
  0.1108163E+01  0.5128344E+06 -0.1116763E+01  0.2783973E-01 -0.2554379E+00  0.8400355E+05 -0.2733601E+01  0.1467559E+00  0.2283947E+01  0.1932612E+07 -0.1113711E+01  0.2285250E-02  0.1785299E+00
  0.1146939E+01  0.5167571E+06 -0.1060486E+01  0.1956278E-01  0.2464896E+01  0.8083264E+05 -0.2723712E+01  0.1224722E+00 -0.2880567E+01  0.1974367E+07 -0.1057059E+01  0.7009104E-03  0.1520838E+01
  0.1185714E+01  0.5149000E+06 -0.1003388E+01  0.1701102E-01 -0.2734816E+01  0.7728349E+05 -0.2714337E+01  0.1207050E+00 -0.1355850E+01  0.1995027E+07 -0.9995654E+00  0.3662437E-02  0.3022752E+01
  0.1224490E+01  0.5072644E+06 -0.9463163E+00  0.1292381E+00 -0.1226917E+01  0.7342015E+05 -0.2705468E+01  0.4169678E-01  0.1283202E+01  0.1993630E+07 -0.9420794E+00  0.3012742E-02 -0.4081491E+00
  0.1263265E+01  0.4941284E+06 -0.8900782E+00  0.6248914E-01 -0.1164568E+01  0.6933435E+05 -0.2697233E+01  0.1635294E+00 -0.8568897E+00  0.1970185E+07 -0.8854017E+00  0.2076167E-02  0.2916882E+01
  0.1302041E+01  0.4759466E+06 -0.8353621E+00  0.2300555E-01 -0.2071142E+01  0.6509705E+05 -0.2689693E+01  0.2658609E-01 -0.5645798E+00  0.1925487E+07 -0.8302132E+00  0.3472280E-02 -0.5276626E+00
  0.1340816E+01  0.4533592E+06 -0.7827427E+00  0.6588257E-01  0.2282732E+01  0.6074823E+05 -0.2682777E+01  0.2680970E+00 -0.2011303E+01  0.1861185E+07 -0.7770888E+00  0.6110978E-02  0.3556359E+00
  0.1379592E+01  0.4270943E+06 -0.7326472E+00  0.1064782E+00  0.1634103E+01  0.5635036E+05 -0.2676508E+01  0.4645970E-01 -0.2673892E+01  0.1779391E+07 -0.7264582E+00  0.1925784E-02  0.1293998E+01
  0.1418367E+01  0.3979057E+06 -0.6853539E+00  0.1142728E-01 -0.1570323E+01  0.5197746E+05 -0.2670983E+01  0.5641517E-01  0.7001168E+00  0.1682424E+07 -0.6785834E+00  0.5554176E-02 -0.3834007E+00
  0.1457143E+01  0.3665101E+06 -0.6409997E+00  0.2488382E-01 -0.2521895E+01  0.4767311E+05 -0.2666209E+01  0.5806509E-01  0.6471389E+00  0.1572691E+07 -0.6335819E+00  0.8053582E-03  0.1106572E+00
  0.1495918E+01  0.3335880E+06 -0.5996321E+00  0.2074992E-01  0.1257365E+00  0.4346910E+05 -0.2662197E+01  0.2345587E+00  0.1953462E+01  0.1452620E+07 -0.5914907E+00  0.1728584E-02 -0.2646198E+01
  0.1534694E+01  0.2997310E+06 -0.5611820E+00  0.4571237E-01  0.1635260E+01  0.3940570E+05 -0.2658988E+01  0.9434590E-01  0.1396415E+01  0.1324431E+07 -0.5522292E+00  0.4777701E-03 -0.2512796E+01
  0.1573469E+01  0.2654682E+06 -0.5255412E+00  0.1099497E+00 -0.1702193E+01  0.3551789E+05 -0.2656667E+01  0.2419965E+00 -0.1120538E+01  0.1190156E+07 -0.5156452E+00  0.7742746E-03 -0.1243550E+00
  0.1612245E+01  0.2312162E+06 -0.4924825E+00  0.2853943E-02 -0.2733871E+01  0.3183641E+05 -0.2655266E+01  0.2992512E+00 -0.1731755E+01  0.1051525E+07 -0.4814551E+00  0.9075700E-03  0.2568627E+01
  0.1651020E+01  0.1973357E+06 -0.4617729E+00  0.1105817E+00  0.1505137E+01  0.2836780E+05 -0.2654860E+01  0.5289738E-01  0.9903394E+00  0.9101721E+06 -0.4493364E+00  0.2154223E-02 -0.2953371E+01
  0.1689796E+01  0.1641202E+06 -0.4330900E+00  0.1856868E-01  0.1549966E+01  0.2512623E+05 -0.2655578E+01  0.2278670E+00 -0.1487247E+01  0.7674828E+06 -0.4188201E+00  0.3100977E-02 -0.6656817E-01
  0.1728571E+01  0.1318064E+06 -0.4059886E+00  0.2025328E-01  0.1841046E+01  0.2212228E+05 -0.2657587E+01  0.2699968E+00 -0.1490482E+01  0.6246944E+06 -0.3891957E+00  0.6672635E-03  0.3217506E+00
  0.1767347E+01  0.1005863E+06 -0.3797286E+00  0.4256717E-01  0.1546720E+01  0.1935868E+05 -0.2661135E+01  0.2411787E+00  0.1614614E+01  0.4828818E+06 -0.3591216E+00  0.1206027E-03  0.2034444E+01
  0.1806122E+01  0.7060739E+05 -0.3526661E+00  0.2152885E-01 -0.1625869E+01  0.1683073E+05 -0.2666536E+01  0.6234040E+00  0.1507792E+01  0.3430066E+06 -0.3254170E+00  0.7949302E-03 -0.2553590E+01
  0.1844898E+01  0.4199801E+05 -0.3195950E+00  0.3424706E-03  0.1405648E+01  0.1453167E+05 -0.2674284E+01  0.4373586E-01  0.1191590E+01  0.2060495E+06 -0.2773770E+00  0.3378109E-03 -0.1570796E+01
  0.1883674E+01  0.1488322E+05 -0.2399613E+00  0.4051534E-01  0.1618346E+01  0.1245483E+05 -0.2685142E+01  0.2631907E+00  0.1610108E+01  0.7341891E+05 -0.1296761E+00  0.1955340E-02 -0.1541393E+01
  0.1922449E+01  0.1089575E+05  0.2691472E+01  0.5622158E-02  0.2920660E+01  0.1058904E+05 -0.2700392E+01  0.6752685E-01  0.1893199E+01  0.5915346E+05  0.2577914E+01  0.1412924E-02  0.8441540E+00
  0.1961224E+01  0.3484450E+05  0.2796584E+01  0.7781657E-02 -0.1555413E+01  0.8918153E+04 -0.2722476E+01  0.1139561E+00 -0.1440552E+01  0.1821712E+06  0.2762863E+01  0.1960547E-02  0.1355439E+01
  0.2000000E+01  0.5718552E+05  0.2826486E+01  0.3738323E-01 -0.1449682E+01  0.7416432E+04 -0.2756766E+01  0.4914754E-01 -0.1394706E+01  0.3005763E+06  0.2808830E+01  0.1220703E-03  0.0000000E+00
Zone t="Diffraction force - beta =  51.429 deg",I=    50,F=POINT
  0.1000000E+00  0.3668546E+04 -0.1570796E+01  0.4600208E+04 -0.1570795E+01  0.2764449E+04 -0.3130682E+01  0.1413622E+05  0.1570797E+01  0.1127325E+05 -0.1570796E+01  0.3971868E-04  0.1618836E+01
  0.1387755E+00  0.7048682E+04 -0.1570790E+01  0.8838765E+04 -0.1570790E+01  0.5314131E+04 -0.3121071E+01  0.2720226E+05  0.1570802E+01  0.2169308E+05 -0.1570790E+01  0.1580554E-03  0.1745857E+01
  0.1775510E+00  0.1150334E+05 -0.1570771E+01  0.1442474E+05 -0.1570771E+01  0.8654466E+04 -0.3108947E+01  0.4448370E+05  0.1570822E+01  0.3547457E+05 -0.1570770E+01  0.1165277E-04 -0.2191046E+01
  0.2163265E+00  0.1701422E+05 -0.1570713E+01  0.2133515E+05 -0.1570713E+01  0.1273497E+05 -0.3094702E+01  0.6595948E+05  0.1570880E+01  0.5260092E+05 -0.1570713E+01  0.4955068E-03 -0.1692672E+01
  0.2551020E+00  0.2356217E+05 -0.1570577E+01  0.2954603E+05 -0.1570577E+01  0.1747902E+05 -0.3078725E+01  0.9162148E+05  0.1571017E+01  0.7306568E+05 -0.1570576E+01  0.5535226E-03 -0.1358230E+01
  0.2938775E+00  0.3112490E+05 -0.1570296E+01  0.3902938E+05 -0.1570296E+01  0.2279561E+05 -0.3061421E+01  0.1214571E+06  0.1571301E+01  0.9685889E+05 -0.1570292E+01  0.4792292E-03 -0.1840741E+01
  0.3326530E+00  0.3968260E+05 -0.1569771E+01  0.4976043E+05 -0.1569771E+01  0.2857003E+05 -0.3043150E+01  0.1554797E+06  0.1571830E+01  0.1239910E+06 -0.1569763E+01  0.9394635E-03  0.1462526E+01
  0.3714286E+00  0.4921513E+05 -0.1568867E+01  0.6171382E+05 -0.1568867E+01  0.3467896E+05 -0.3024257E+01  0.1937128E+06  0.1572741E+01  0.1544810E+06 -0.1568852E+01  0.9072507E-04 -0.2889038E+01
  0.4102041E+00  0.5970529E+05 -0.1567407E+01  0.7486802E+05 -0.1567407E+01  0.4098973E+05 -0.3005042E+01  0.2362043E+06  0.1574213E+01  0.1883668E+06 -0.1567380E+01  0.8780379E-03  0.1871130E+01
  0.4489796E+00  0.7113767E+05 -0.1565171E+01  0.8920375E+05 -0.1565171E+01  0.4736573E+05 -0.2985757E+01  0.2830238E+06  0.1576467E+01  0.2257041E+06 -0.1565125E+01  0.1542838E-02  0.1824391E+01
  0.4877551E+00  0.8349581E+05 -0.1561896E+01  0.1047005E+06 -0.1561896E+01  0.5368521E+05 -0.2966655E+01  0.3342388E+06  0.1579769E+01  0.2665466E+06 -0.1561824E+01  0.1097272E-02  0.1431297E+01
  0.5265306E+00  0.9676541E+05 -0.1557280E+01  0.1213400E+06 -0.1557280E+01  0.5982106E+05 -0.2947901E+01  0.3899540E+06  0.1584422E+01  0.3109779E+06 -0.1557170E+01  0.1480391E-02 -0.1097440E+01
  0.5653061E+00  0.1109231E+06 -0.1550984E+01  0.1390931E+06 -0.1550984E+01  0.6563862E+05 -0.2929543E+01  0.4502543E+06  0.1590768E+01  0.3590661E+06 -0.1550824E+01  0.4599466E-02 -0.1503230E+01
  0.6040816E+00  0.1259351E+06 -0.1542644E+01  0.1579177E+06 -0.1542644E+01  0.7106345E+05 -0.2911785E+01  0.5151572E+06  0.1599175E+01  0.4108240E+06 -0.1542418E+01  0.4432101E-02  0.2509738E+01
  0.6428572E+00  0.1417589E+06 -0.1531877E+01  0.1777601E+06 -0.1531877E+01  0.7598345E+05 -0.2894585E+01  0.5847101E+06  0.1610025E+01  0.4662902E+06 -0.1531568E+01  0.4343836E-02 -0.7566521E+00
  0.6816327E+00  0.1583105E+06 -0.1518294E+01  0.1985152E+06 -0.1518294E+01  0.8034146E+05 -0.2878038E+01  0.6587460E+06  0.1623712E+01  0.5253322E+06 -0.1517881E+01  0.2498314E-02 -0.3041510E+01
  0.7204082E+00  0.1754944E+06 -0.1501515E+01  0.2200631E+06 -0.1501515E+01  0.8406948E+05 -0.2862109E+01  0.7370869E+06  0.1640615E+01  0.5878070E+06 -0.1500978E+01  0.4246031E-02 -0.1843406E+01
  0.7591837E+00  0.1931459E+06 -0.1481182E+01  0.2421973E+06 -0.1481182E+01  0.8713278E+05 -0.2846825E+01  0.8192156E+06  0.1661096E+01  0.6533027E+06 -0.1480497E+01  0.1425613E-02  0.3250887E-01
  0.7979592E+00  0.2110741E+06 -0.1456980E+01  0.2646786E+06 -0.1456980E+01  0.8948273E+05 -0.2832071E+01  0.9045491E+06  0.1685467E+01  0.7213533E+06 -0.1456126E+01  0.9728720E-03 -0.1002913E+00
  0.8367347E+00  0.2290015E+06 -0.1428656E+01  0.2871589E+06 -0.1428656E+01  0.9114109E+05 -0.2818000E+01  0.9919882E+06  0.1713987E+01  0.7910838E+06 -0.1427605E+01  0.3630389E-02  0.2705704E+00
  0.8755102E+00  0.2465978E+06 -0.1396040E+01  0.3092238E+06 -0.1396040E+01  0.9205539E+05 -0.2804334E+01  0.1080294E+07  0.1746820E+01  0.8615062E+06 -0.1394772E+01  0.4769749E-02 -0.2004378E+01
  0.9142857E+00  0.2634597E+06 -0.1359071E+01  0.3303678E+06 -0.1359070E+01  0.9229508E+05 -0.2791337E+01  0.1167705E+07  0.1784032E+01  0.9312136E+06 -0.1357560E+01  0.4494593E-02  0.9390904E+00
  0.9530612E+00  0.2791217E+06 -0.1317819E+01  0.3500078E+06 -0.1317819E+01  0.9184401E+05 -0.2778812E+01  0.1252153E+07  0.1825551E+01  0.9985586E+06 -0.1316042E+01  0.6916485E-02  0.2501666E+01
  0.9918368E+00  0.2930899E+06 -0.1272506E+01  0.3675234E+06 -0.1272506E+01  0.9072380E+05 -0.2766670E+01  0.1331349E+07  0.1871148E+01  0.1061714E+07 -0.1270444E+01  0.2774148E-02  0.2737926E+01
  0.1030612E+01  0.3048289E+06 -0.1223505E+01  0.3822433E+06 -0.1223506E+01  0.8903706E+05 -0.2755229E+01  0.1402555E+07  0.1920459E+01  0.1118500E+07 -0.1221133E+01  0.3933881E-02 -0.1702093E+01
  0.1069388E+01  0.3138525E+06 -0.1171362E+01  0.3935588E+06 -0.1171362E+01  0.8677846E+05 -0.2744213E+01  0.1463230E+07  0.1972934E+01  0.1166888E+07 -0.1168659E+01  0.4221623E-02 -0.1112334E+01
  0.1108163E+01  0.3197470E+06 -0.1116763E+01  0.4009500E+06 -0.1116763E+01  0.8400358E+05 -0.2733601E+01  0.1510978E+07  0.2027882E+01  0.1204964E+07 -0.1113712E+01  0.7920038E-02  0.6840771E+00
  0.1146939E+01  0.3221926E+06 -0.1060486E+01  0.4040170E+06 -0.1060485E+01  0.8083264E+05 -0.2723712E+01  0.1543622E+07  0.2084534E+01  0.1230998E+07 -0.1057059E+01  0.7727731E-02  0.2922432E+01
  0.1185714E+01  0.3210349E+06 -0.1003388E+01  0.4025649E+06 -0.1003388E+01  0.7728349E+05 -0.2714337E+01  0.1559775E+07  0.2142028E+01  0.1243879E+07 -0.9995651E+00  0.6445449E-02 -0.3006444E+01
  0.1224490E+01  0.3162743E+06 -0.9463163E+00  0.3965954E+06 -0.9463164E+00  0.7342014E+05 -0.2705468E+01  0.1558683E+07  0.2199514E+01  0.1243008E+07 -0.9420785E+00  0.4917078E-02 -0.1804716E+01
  0.1263265E+01  0.3080842E+06 -0.8900778E+00  0.3863251E+06 -0.8900785E+00  0.6933435E+05 -0.2697233E+01  0.1540353E+07  0.2256191E+01  0.1228390E+07 -0.8854019E+00  0.1857001E-02  0.1668552E+00
  0.1302041E+01  0.2967478E+06 -0.8353623E+00  0.3721102E+06 -0.8353620E+00  0.6509705E+05 -0.2689693E+01  0.1505406E+07  0.2311380E+01  0.1200521E+07 -0.8302131E+00  0.1233494E-01 -0.7738956E-01
  0.1340816E+01  0.2826648E+06 -0.7827423E+00  0.3544503E+06 -0.7827425E+00  0.6074821E+05 -0.2682776E+01  0.1455132E+07  0.2364503E+01  0.1160429E+07 -0.7770888E+00  0.2619501E-02 -0.4182243E+00
  0.1379592E+01  0.2662889E+06 -0.7326471E+00  0.3339157E+06 -0.7326478E+00  0.5635036E+05 -0.2676508E+01  0.1391184E+07  0.2415134E+01  0.1109432E+07 -0.7264578E+00  0.4760716E-02 -0.1270022E+01
  0.1418367E+01  0.2480903E+06 -0.6853534E+00  0.3110952E+06 -0.6853539E+00  0.5197746E+05 -0.2670983E+01  0.1315372E+07  0.2463009E+01  0.1048974E+07 -0.6785836E+00  0.6625879E-02  0.2075357E+01
  0.1457143E+01  0.2285153E+06 -0.6409994E+00  0.2865491E+06 -0.6409997E+00  0.4767310E+05 -0.2666209E+01  0.1229579E+07  0.2508010E+01  0.9805563E+06 -0.6335821E+00  0.3380262E-02  0.1590531E+01
  0.1495918E+01  0.2079887E+06 -0.5996320E+00  0.2608096E+06 -0.5996321E+00  0.4346912E+05 -0.2662197E+01  0.1135704E+07  0.2550102E+01  0.9056929E+06 -0.5914913E+00  0.7488149E-02 -0.1589087E+01
  0.1534694E+01  0.1868792E+06 -0.5611819E+00  0.2343392E+06 -0.5611818E+00  0.3940571E+05 -0.2658988E+01  0.1035481E+07  0.2589364E+01  0.8257688E+06 -0.5522290E+00  0.3481272E-02 -0.2841115E+01
  0.1573469E+01  0.1655167E+06 -0.5255406E+00  0.2075513E+06 -0.5255412E+00  0.3551789E+05 -0.2656667E+01  0.9305004E+06  0.2625947E+01  0.7420501E+06 -0.5156451E+00  0.3577376E-02 -0.3141593E+01
  0.1612245E+01  0.1441609E+06 -0.4924824E+00  0.1807722E+06 -0.4924827E+00  0.3183640E+05 -0.2655266E+01  0.8221152E+06  0.2660138E+01  0.6556146E+06 -0.4814553E+00  0.4840384E-02  0.2349905E+01
  0.1651020E+01  0.1230369E+06 -0.4617722E+00  0.1542832E+06 -0.4617732E+00  0.2836779E+05 -0.2654860E+01  0.7116014E+06  0.2692256E+01  0.5674827E+06 -0.4493365E+00  0.1109350E-02 -0.8135032E+00
  0.1689796E+01  0.1023273E+06 -0.4330892E+00  0.1283143E+06 -0.4330898E+00  0.2512622E+05 -0.2655578E+01  0.6000419E+06  0.2722774E+01  0.4785172E+06 -0.4188197E+00  0.2959518E-02  0.2895161E+01
  0.1728571E+01  0.8217991E+05 -0.4059892E+00  0.1030504E+06 -0.4059886E+00  0.2212229E+05 -0.2657587E+01  0.4884048E+06  0.2752398E+01  0.3894901E+06 -0.3891952E+00  0.1173135E-02 -0.3679810E+00
  0.1767347E+01  0.6271459E+05 -0.3797291E+00  0.7864162E+05 -0.3797303E+00  0.1935867E+05 -0.2661135E+01  0.3775321E+06  0.2782471E+01  0.3010718E+06 -0.3591222E+00  0.2003783E-02  0.2635801E+01
  0.1806122E+01  0.4402300E+05 -0.3526673E+00  0.5520306E+05 -0.3526680E+00  0.1683073E+05 -0.2666536E+01  0.2681734E+06  0.2816175E+01  0.2138609E+06 -0.3254167E+00  0.4721004E-02 -0.1091484E+01
  0.1844898E+01  0.2618536E+05 -0.3195970E+00  0.3283534E+05 -0.3195951E+00  0.1453167E+05 -0.2674284E+01  0.1610959E+06  0.2864214E+01  0.1284697E+06 -0.2773748E+00  0.3716027E-02 -0.1578372E+01
  0.1883674E+01  0.9279556E+04 -0.2399662E+00  0.1163619E+05 -0.2399631E+00  0.1245482E+05 -0.2685142E+01  0.5740138E+05  0.3011907E+01  0.4577600E+05 -0.1296735E+00  0.6009948E-02  0.1866834E+01
  0.1922449E+01  0.6793480E+04  0.2691468E+01  0.8518748E+04  0.2691458E+01  0.1058905E+05 -0.2700393E+01  0.4624808E+05 -0.5636786E+00  0.3688216E+05  0.2577920E+01  0.7278676E-02 -0.3625442E+00
  0.1961224E+01  0.2172527E+05  0.2796583E+01  0.2724252E+05  0.2796583E+01  0.8918162E+04 -0.2722476E+01  0.1424272E+06 -0.3787322E+00  0.1135821E+06  0.2762864E+01  0.8102132E-02  0.3067654E+01
  0.2000000E+01  0.3565456E+05  0.2826488E+01  0.4470943E+05  0.2826489E+01  0.7416430E+04 -0.2756767E+01  0.2350001E+06 -0.3327614E+00  0.1874062E+06  0.2808829E+01  0.1375243E-01  0.5328285E-01
Zone t="Diffraction force - beta = 102.857 deg",I=    50,F=POINT
  0.1000000E+00  0.1309289E+04  0.1570797E+01  0.5736368E+04 -0.1570796E+01  0.2764448E+04 -0.3130682E+01  0.1762757E+05  0.1570797E+01  0.4023377E+04  0.1570797E+01  0.2327504E-04  0.2151308E-01
  0.1387755E+00  0.2515644E+04  0.1570802E+01  0.1102176E+05 -0.1570790E+01  0.5314133E+04 -0.3121071E+01  0.3392067E+05  0.1570802E+01  0.7742167E+04  0.1570802E+01  0.9611303E-04 -0.1074197E+01
  0.1775510E+00  0.4105496E+04  0.1570822E+01  0.1798734E+05 -0.1570771E+01  0.8654466E+04 -0.3108947E+01  0.5547030E+05  0.1570822E+01  0.1266073E+05  0.1570822E+01  0.5155227E-03  0.1632585E+01
  0.2163265E+00  0.6072308E+04  0.1570879E+01  0.2660450E+05 -0.1570713E+01  0.1273497E+05 -0.3094702E+01  0.8225007E+05  0.1570880E+01  0.1877304E+05  0.1570880E+01  0.1962243E-03 -0.2205545E+01
  0.2551020E+00  0.8409242E+04  0.1571015E+01  0.3684329E+05 -0.1570577E+01  0.1747902E+05 -0.3078725E+01  0.1142502E+06  0.1571017E+01  0.2607685E+05  0.1571017E+01  0.1476217E-03 -0.1199777E+01
  0.2938775E+00  0.1110835E+05  0.1571297E+01  0.4866886E+05 -0.1570296E+01  0.2279561E+05 -0.3061421E+01  0.1514546E+06  0.1571300E+01  0.3456849E+05  0.1571301E+01  0.2953424E-04 -0.2979564E+01
  0.3326530E+00  0.1416256E+05  0.1571821E+01  0.6205023E+05 -0.1569771E+01  0.2857002E+05 -0.3043150E+01  0.1938801E+06  0.1571830E+01  0.4425189E+05  0.1571830E+01  0.9067346E-03 -0.1825449E+01
  0.3714286E+00  0.1756467E+05  0.1572725E+01  0.7695591E+05 -0.1568867E+01  0.3467897E+05 -0.3024257E+01  0.2415561E+06  0.1572741E+01  0.5513361E+05  0.1572741E+01  0.6325415E-03 -0.1942152E+01
  0.4102041E+00  0.2130858E+05  0.1574185E+01  0.9335889E+05 -0.1567407E+01  0.4098971E+05 -0.3005042E+01  0.2945420E+06  0.1574213E+01  0.6722727E+05  0.1574213E+01  0.8581936E-03  0.2881577E+01
  0.4489796E+00  0.2538872E+05  0.1576422E+01  0.1112352E+06 -0.1565171E+01  0.4736573E+05 -0.2985757E+01  0.3529249E+06  0.1576467E+01  0.8055280E+05  0.1576467E+01  0.1260336E-02 -0.1809513E+01
  0.4877551E+00  0.2979932E+05  0.1579697E+01  0.1305593E+06 -0.1561896E+01  0.5368520E+05 -0.2966655E+01  0.4167890E+06  0.1579769E+01  0.9512934E+05  0.1579769E+01  0.1862903E-02 -0.1450653E+01
  0.5265306E+00  0.3453521E+05  0.1584313E+01  0.1513086E+06 -0.1557280E+01  0.5982104E+05 -0.2947901E+01  0.4862648E+06  0.1584423E+01  0.1109868E+06  0.1584422E+01  0.2152001E-02 -0.2234459E+01
  0.5653061E+00  0.3958801E+05  0.1590608E+01  0.1734462E+06 -0.1550984E+01  0.6563860E+05 -0.2929543E+01  0.5614584E+06  0.1590768E+01  0.1281492E+06  0.1590769E+01  0.1734709E-02 -0.3232704E-01
  0.6040816E+00  0.4494573E+05  0.1598948E+01  0.1969201E+06 -0.1542644E+01  0.7106345E+05 -0.2911785E+01  0.6423907E+06  0.1599174E+01  0.1466216E+06  0.1599174E+01  0.3040521E-02 -0.2233701E+01
  0.6428572E+00  0.5059318E+05  0.1609715E+01  0.2216633E+06 -0.1531877E+01  0.7598345E+05 -0.2894586E+01  0.7291209E+06  0.1610025E+01  0.1664173E+06  0.1610025E+01  0.5604331E-02 -0.1114976E+01
  0.6816327E+00  0.5650040E+05  0.1623299E+01  0.2475443E+06 -0.1518294E+01  0.8034146E+05 -0.2878038E+01  0.8214429E+06  0.1623712E+01  0.1874888E+06  0.1623712E+01  0.3241717E-02  0.1785811E+01
  0.7204082E+00  0.6263331E+05  0.1640077E+01  0.2744142E+06 -0.1501515E+01  0.8406947E+05 -0.2862109E+01  0.9191321E+06  0.1640615E+01  0.2097858E+06  0.1640615E+01  0.1344377E-02  0.1048608E+01
  0.7591837E+00  0.6893289E+05  0.1660411E+01  0.3020150E+06 -0.1481182E+01  0.8713280E+05 -0.2846825E+01  0.1021546E+07  0.1661096E+01  0.2331607E+06  0.1661096E+01  0.1592399E-02  0.1424784E+01
  0.7979592E+00  0.7533159E+05  0.1684612E+01  0.3300489E+06 -0.1456980E+01  0.8948276E+05 -0.2832071E+01  0.1127952E+07  0.1685467E+01  0.2574482E+06  0.1685467E+01  0.4889147E-02  0.6848534E+00
  0.8367347E+00  0.8172966E+05  0.1712936E+01  0.3580811E+06 -0.1428656E+01  0.9114105E+05 -0.2817999E+01  0.1236988E+07  0.1713987E+01  0.2823347E+06  0.1713987E+01  0.5589760E-02 -0.6501251E+00
  0.8755102E+00  0.8800972E+05  0.1745552E+01  0.3855959E+06 -0.1396040E+01  0.9205539E+05 -0.2804334E+01  0.1347105E+07  0.1746820E+01  0.3074677E+06  0.1746821E+01  0.3338370E-02  0.3085539E+01
  0.9142857E+00  0.9402762E+05  0.1782522E+01  0.4119621E+06 -0.1359071E+01  0.9229510E+05 -0.2791337E+01  0.1456105E+07  0.1784032E+01  0.3323464E+06  0.1784033E+01  0.8397615E-02  0.5179098E+00
  0.9530612E+00  0.9961737E+05  0.1823774E+01  0.4364523E+06 -0.1317819E+01  0.9184405E+05 -0.2778812E+01  0.1561410E+07  0.1825551E+01  0.3563817E+06  0.1825550E+01  0.7621314E-02  0.2837342E+01
  0.9918368E+00  0.1046025E+06  0.1869087E+01  0.4582939E+06 -0.1272506E+01  0.9072381E+05 -0.2766670E+01  0.1660164E+07  0.1871148E+01  0.3789216E+06  0.1871148E+01  0.5307698E-02 -0.2899726E+01
  0.1030612E+01  0.1087923E+06  0.1918087E+01  0.4766497E+06 -0.1223505E+01  0.8903707E+05 -0.2755229E+01  0.1748958E+07  0.1920459E+01  0.3991880E+06  0.1920459E+01  0.8506008E-02 -0.2010214E+00
  0.1069388E+01  0.1120127E+06  0.1970231E+01  0.4907595E+06 -0.1171362E+01  0.8677847E+05 -0.2744213E+01  0.1824618E+07  0.1972934E+01  0.4164571E+06  0.1972934E+01  0.5000117E-02  0.1832397E+01
  0.1108163E+01  0.1141164E+06  0.2024830E+01  0.4999764E+06 -0.1116763E+01  0.8400356E+05 -0.2733601E+01  0.1884158E+07  0.2027882E+01  0.4300462E+06  0.2027882E+01  0.1108652E-01 -0.2087672E+01
  0.1146939E+01  0.1149892E+06  0.2081107E+01  0.5038009E+06 -0.1060486E+01  0.8083262E+05 -0.2723712E+01  0.1924866E+07  0.2084533E+01  0.4393379E+06  0.2084533E+01  0.8878728E-02  0.3125565E+00
  0.1185714E+01  0.1145760E+06  0.2138206E+01  0.5019902E+06 -0.1003388E+01  0.7728352E+05 -0.2714337E+01  0.1945007E+07  0.2142027E+01  0.4439356E+06  0.2142028E+01  0.4598225E-02 -0.3935701E-01
  0.1224490E+01  0.1128770E+06  0.2195276E+01  0.4945465E+06 -0.9463164E+00  0.7342015E+05 -0.2705468E+01  0.1943646E+07  0.2199513E+01  0.4436246E+06  0.2199514E+01  0.4272704E-02 -0.5118237E+00
  0.1263265E+01  0.1099540E+06  0.2251514E+01  0.4817395E+06 -0.8900785E+00  0.6933437E+05 -0.2697233E+01  0.1920788E+07  0.2256191E+01  0.4384077E+06  0.2256190E+01  0.1702026E-02 -0.1488596E+01
  0.1302041E+01  0.1059081E+06  0.2306231E+01  0.4640137E+06 -0.8353625E+00  0.6509704E+05 -0.2689693E+01  0.1877210E+07  0.2311380E+01  0.4284606E+06  0.2311380E+01  0.2768444E-02 -0.7600229E+00
  0.1340816E+01  0.1008818E+06  0.2358851E+01  0.4419923E+06 -0.7827421E+00  0.6074822E+05 -0.2682776E+01  0.1814520E+07  0.2364504E+01  0.4141523E+06  0.2364504E+01  0.4491722E-02  0.1973296E+01
  0.1379592E+01  0.9503740E+05  0.2408946E+01  0.4163860E+06 -0.7326475E+00  0.5635037E+05 -0.2676508E+01  0.1734777E+07  0.2415134E+01  0.3959518E+06  0.2415134E+01  0.3739247E-02 -0.9453112E+00
  0.1418367E+01  0.8854234E+05  0.2456239E+01  0.3879296E+06 -0.6853532E+00  0.5197746E+05 -0.2670983E+01  0.1640243E+07  0.2463010E+01  0.3743748E+06  0.2463010E+01  0.2787778E-02 -0.6310794E+00
  0.1457143E+01  0.8155626E+05  0.2500591E+01  0.3573209E+06 -0.6409997E+00  0.4767311E+05 -0.2666209E+01  0.1533261E+07  0.2508011E+01  0.3499568E+06  0.2508010E+01  0.5077250E-02  0.5126281E+00
  0.1495918E+01  0.7423032E+05  0.2541959E+01  0.3252241E+06 -0.5996321E+00  0.4346911E+05 -0.2662197E+01  0.1416199E+07  0.2550102E+01  0.3232381E+06  0.2550101E+01  0.2474480E-02  0.5214344E+00
  0.1534694E+01  0.6669645E+05  0.2580411E+01  0.2922160E+06 -0.5611818E+00  0.3940571E+05 -0.2658988E+01  0.1291224E+07  0.2589364E+01  0.2947136E+06  0.2589363E+01  0.3084726E-02  0.2095592E+01
  0.1573469E+01  0.5907226E+05  0.2616052E+01  0.2588124E+06 -0.5255408E+00  0.3551789E+05 -0.2656667E+01  0.1160315E+07  0.2625947E+01  0.2648349E+06  0.2625947E+01  0.4286842E-02  0.8488051E+00
  0.1612245E+01  0.5145044E+05  0.2649110E+01  0.2254190E+06 -0.4924821E+00  0.3183640E+05 -0.2655266E+01  0.1025160E+07  0.2660138E+01  0.2339865E+06  0.2660138E+01  0.2553285E-02 -0.4377913E+00
  0.1651020E+01  0.4391132E+05  0.2679821E+01  0.1923880E+06 -0.4617723E+00  0.2836780E+05 -0.2654860E+01  0.8873519E+06  0.2692257E+01  0.2025324E+06  0.2692257E+01  0.1468967E-02 -0.3038511E+01
  0.1689796E+01  0.3652018E+05  0.2708502E+01  0.1600055E+06 -0.4330902E+00  0.2512623E+05 -0.2655578E+01  0.7482406E+06  0.2722773E+01  0.1707809E+06  0.2722772E+01  0.3177326E-02  0.9061944E+00
  0.1728571E+01  0.2932968E+05  0.2735604E+01  0.1285017E+06 -0.4059891E+00  0.2212228E+05 -0.2657586E+01  0.6090317E+06  0.2752397E+01  0.1390075E+06  0.2752397E+01  0.4813151E-02 -0.2663240E+01
  0.1767347E+01  0.2238256E+05  0.2761863E+01  0.9806435E+05 -0.3797295E+00  0.1935868E+05 -0.2661135E+01  0.4707745E+06  0.2782470E+01  0.1074512E+06  0.2782470E+01  0.2307422E-02  0.7936624E+00
  0.1806122E+01  0.1571164E+05  0.2788926E+01  0.6883718E+05 -0.3526676E+00  0.1683074E+05 -0.2666536E+01  0.3344065E+06  0.2816175E+01  0.7632627E+05  0.2816176E+01  0.4167191E-02  0.2224879E+01
  0.1844898E+01  0.9345493E+04  0.2821997E+01  0.4094501E+05 -0.3195944E+00  0.1453167E+05 -0.2674284E+01  0.2008831E+06  0.2864216E+01  0.4585039E+05  0.2864217E+01  0.4168331E-02  0.4394831E+00
  0.1883674E+01  0.3311791E+04  0.2901631E+01  0.1451014E+05 -0.2399640E+00  0.1245481E+05 -0.2685142E+01  0.7157838E+05  0.3011914E+01  0.1633712E+05  0.3011915E+01  0.8182111E-02 -0.3073038E+01
  0.1922449E+01  0.2424529E+04 -0.4501300E+00  0.1062256E+05  0.2691480E+01  0.1058905E+05 -0.2700392E+01  0.5767055E+05 -0.5636807E+00  0.1316285E+05 -0.5636907E+00  0.3209595E-02  0.1349649E+01
  0.1961224E+01  0.7753656E+04 -0.3450064E+00  0.3397080E+05  0.2796585E+01  0.8918167E+04 -0.2722476E+01  0.1776035E+06 -0.3787326E+00  0.4053699E+05 -0.3787282E+00  0.4365902E-02 -0.5004408E+00
  0.2000000E+01  0.1272504E+05 -0.3151059E+00  0.5575179E+05  0.2826486E+01  0.7416432E+04 -0.2756766E+01  0.2930407E+06 -0.3327611E+00  0.6688491E+05 -0.3327645E+00  0.1015376E-01 -0.2925776E+01
Zone t="Diffraction force - beta = 154.286 deg",I=    50,F=POINT