VARIABLES="w (rad/s)"  
"abs(F   1   1)" "angle(F   1   1)"
"abs(F   1   2)" "angle(F   1   2)"
"abs(F   1   3)" "angle(F   1   3)"
"abs(F   1   4)" "angle(F   1   4)"
"abs(F   1   5)" "angle(F   1   5)"
"abs(F   1   6)" "angle(F   1   6)"
Zone t="Diffraction force - beta =   0.000 deg",I=   525,F=POINT
  0.4000000E-01  0.1288008E+02 -0.1570794E+01  0.2896235E-07 -0.1757092E+01  0.1762471E+00 -0.3030065E+01  0.3887361E-07 -0.9983229E+00  0.3558973E+01  0.1570799E+01  0.5755398E-14  0.1571568E+01
  0.8000000E-01  0.2576657E+02 -0.1570787E+01  0.1347498E-06 -0.5805650E+00  0.6750735E+00 -0.3025136E+01  0.5858398E-07 -0.3063037E+01  0.7091468E+01  0.1570805E+01  0.8953054E-14  0.1563852E+01
  0.1200000E+00  0.3865974E+02 -0.1570776E+01  0.3127686E-06 -0.1413372E+01  0.1404395E+01 -0.3015541E+01  0.3614906E-07  0.2437327E+01  0.1063816E+02  0.1570817E+01  0.8535875E-15 -0.1523956E+01
  0.1600000E+00  0.5155257E+02 -0.1570760E+01  0.5224594E-07 -0.2680496E+01  0.2439214E+01 -0.3012497E+01  0.5104457E-07 -0.1188597E+01  0.1417729E+02  0.1570832E+01  0.2785355E-13 -0.1575261E+01
  0.2000000E+00  0.6454864E+02 -0.1570739E+01  0.9117476E-06  0.1237088E+00  0.3785754E+01 -0.3011535E+01  0.5147970E-07  0.1067772E+01  0.1773487E+02  0.1570853E+01  0.2629192E-13  0.1558973E+01
  0.2400000E+00  0.7743315E+02 -0.1570713E+01  0.2509654E-05  0.3562522E-03  0.5346635E+01 -0.3008842E+01  0.2056946E-06  0.8525284E+00  0.2130293E+02  0.1570878E+01  0.2260154E-13  0.1547216E+01
  0.2800000E+00  0.9041357E+02 -0.1570682E+01  0.1526499E-05  0.2669121E+01  0.7173839E+01 -0.3006773E+01  0.3131095E-06  0.1178405E+01  0.2487097E+02  0.1570908E+01  0.9950706E-14 -0.1545802E+01
  0.3200000E+00  0.1034222E+03 -0.1570647E+01  0.1280051E-06 -0.8405770E+00  0.9262423E+01 -0.3005036E+01  0.1421530E-05  0.2958454E+01  0.2844516E+02  0.1570943E+01  0.5172751E-13  0.1570796E+01
  0.3600000E+00  0.1164709E+03 -0.1570606E+01  0.3079367E-05 -0.2909118E+01  0.1160218E+02 -0.3003415E+01  0.3842740E-06 -0.1050781E+00  0.3202976E+02  0.1570984E+01  0.5435799E-13 -0.1578149E+01
  0.4000000E+00  0.1295640E+03 -0.1570559E+01  0.5026282E-06 -0.1430629E+01  0.1419141E+02 -0.3001901E+01  0.1156950E-05  0.9322414E+00  0.3562214E+02  0.1571029E+01  0.1934517E-13  0.1441886E+01
  0.4400000E+00  0.1427090E+03 -0.1570507E+01  0.2260329E-05 -0.2872208E+01  0.1702381E+02 -0.3000434E+01  0.2061570E-06  0.2131411E+01  0.3922789E+02  0.1571081E+01  0.7250865E-14  0.1815775E+01
  0.4800000E+00  0.1559033E+03 -0.1570449E+01  0.1418338E-05 -0.2385840E+01  0.2010222E+02 -0.2999048E+01  0.3614485E-05  0.1853290E+00  0.4284518E+02  0.1571138E+01  0.4775037E-13 -0.1561868E+01
  0.5200000E+00  0.1691626E+03 -0.1570385E+01  0.9592551E-05 -0.2859382E+01  0.2341613E+02 -0.2997665E+01  0.1760809E-05  0.1718153E+00  0.4647663E+02  0.1571201E+01  0.1007435E-12  0.1536406E+01
  0.5600000E+00  0.1824835E+03 -0.1570314E+01  0.9749973E-05  0.1265776E+00  0.2695649E+02 -0.2996252E+01  0.1393526E-05 -0.2927215E+01  0.5012295E+02  0.1571270E+01  0.2296581E-13  0.1484058E+01
  0.6000000E+00  0.1958707E+03 -0.1570236E+01  0.1766943E-05  0.8739585E-01  0.3075088E+02 -0.2994967E+01  0.9334003E-06 -0.2293440E+01  0.5378448E+02  0.1571347E+01  0.1140499E-12 -0.1582478E+01
  0.6400000E+00  0.2093437E+03 -0.1570151E+01  0.8024568E-06  0.3037416E+01  0.3477080E+02 -0.2993653E+01  0.1798160E-05  0.3114491E+01  0.5746526E+02  0.1571430E+01  0.1273407E-12  0.1584188E+01
  0.6800000E+00  0.2228936E+03 -0.1570058E+01  0.1285072E-04 -0.2747469E+01  0.3901112E+02 -0.2992304E+01  0.1412738E-05  0.6019264E+00  0.6116417E+02  0.1571521E+01  0.8337347E-13 -0.1545439E+01
  0.7200000E+00  0.2365323E+03 -0.1569957E+01  0.5511914E-05  0.3079265E+01  0.4349189E+02 -0.2991005E+01  0.4777165E-06  0.8952265E+00  0.6488390E+02  0.1571620E+01  0.5507124E-13  0.1623074E+01
  0.7600000E+00  0.2502680E+03 -0.1569848E+01  0.1288816E-04 -0.2837279E+01  0.4818730E+02 -0.2989662E+01  0.3109198E-05  0.3511951E+00  0.6862592E+02  0.1571728E+01  0.5415291E-13  0.1495937E+01
  0.8000000E+00  0.2641089E+03 -0.1569729E+01  0.3340841E-05 -0.2498760E+01  0.5310406E+02 -0.2988306E+01  0.4470761E-05  0.2034095E+00  0.7239106E+02  0.1571845E+01  0.1588822E-14 -0.2034444E+01
  0.8400000E+00  0.2780533E+03 -0.1569600E+01  0.1132397E-04 -0.2961219E+00  0.5822939E+02 -0.2986906E+01  0.2846022E-05  0.3120043E+00  0.7618057E+02  0.1571971E+01  0.3290329E-13 -0.1502720E+01
  0.8800000E+00  0.2921201E+03 -0.1569461E+01  0.1024703E-04  0.2667143E+01  0.6358049E+02 -0.2985514E+01  0.3117324E-05 -0.5031861E+00  0.7999946E+02  0.1572108E+01  0.9068631E-13 -0.1549248E+01
  0.9200000E+00  0.3063116E+03 -0.1569311E+01  0.1106579E-04  0.4174381E+00  0.6911848E+02 -0.2984037E+01  0.1304200E-05  0.2065478E+01  0.8384683E+02  0.1572256E+01  0.1961932E-12 -0.1599955E+01
  0.9600000E+00  0.3206248E+03 -0.1569148E+01  0.2793246E-04  0.6739640E-01  0.7492338E+02 -0.2982667E+01  0.2592958E-05 -0.1601427E+01  0.8772087E+02  0.1572416E+01  0.5173141E-13 -0.1719686E+01
  0.1000000E+01  0.3350888E+03 -0.1568972E+01  0.2168704E-04  0.2972144E-01  0.8088643E+02 -0.2981152E+01  0.6865453E-05 -0.3669164E+00  0.9163058E+02  0.1572589E+01  0.3215206E-12 -0.1570796E+01
  0.1040000E+01  0.3496935E+03 -0.1568782E+01  0.1149183E-04  0.4309244E+00  0.8704986E+02 -0.2979602E+01  0.2184740E-05  0.2009541E+01  0.9557331E+02  0.1572775E+01  0.1627007E-12  0.1531045E+01
  0.1080000E+01  0.3644562E+03 -0.1568577E+01  0.7786582E-05 -0.4363775E+00  0.9341412E+02 -0.2978022E+01  0.1549942E-05  0.1259298E+01  0.9955258E+02  0.1572977E+01  0.1671296E-12  0.1622474E+01
  0.1120000E+01  0.3793773E+03 -0.1568356E+01  0.3376206E-05  0.1644393E+01  0.9997944E+02 -0.2976414E+01  0.6073020E-05  0.2966190E+01  0.1035685E+03  0.1573194E+01  0.1373669E-12 -0.1534580E+01
  0.1160000E+01  0.3944862E+03 -0.1568117E+01  0.1912405E-04  0.3115604E+01  0.1067286E+03 -0.2974754E+01  0.9141146E-05  0.2947661E+01  0.1076273E+03  0.1573429E+01  0.4153219E-13  0.1446441E+01
  0.1200000E+01  0.4097815E+03 -0.1567858E+01  0.1528304E-04 -0.5641493E+00  0.1136740E+03 -0.2973063E+01  0.5651169E-05 -0.2403951E+01  0.1117296E+03  0.1573683E+01  0.1319416E-12 -0.1741257E+01
  0.1240000E+01  0.4252480E+03 -0.1567580E+01  0.6713117E-05  0.1485712E+01  0.1207575E+03 -0.2971251E+01  0.1118944E-04 -0.1498874E+01  0.1158715E+03  0.1573957E+01  0.1184134E-12 -0.1402590E+01
  0.1280000E+01  0.4409568E+03 -0.1567279E+01  0.3874318E-04 -0.7588950E+00  0.1280490E+03 -0.2969440E+01  0.5892168E-05  0.1324523E+01  0.1200687E+03  0.1574252E+01  0.1389958E-12 -0.1505316E+01
  0.1320000E+01  0.4568628E+03 -0.1566954E+01  0.1409415E-04 -0.1403675E+00  0.1355076E+03 -0.2967570E+01  0.2241343E-05  0.1553085E+01  0.1243126E+03  0.1574572E+01  0.1619434E-12 -0.1527345E+01
  0.1360000E+01  0.4729959E+03 -0.1566602E+01  0.4118401E-04 -0.2128991E+01  0.1431449E+03 -0.2965661E+01  0.1522311E-04  0.3117307E+00  0.1286091E+03  0.1574917E+01  0.4109086E-12  0.1538455E+01
  0.1400000E+01  0.4893833E+03 -0.1566222E+01  0.1356781E-04  0.8555824E+00  0.1508923E+03 -0.2963631E+01  0.1045813E-04 -0.7001682E-01  0.1329642E+03  0.1575290E+01  0.6714628E-13 -0.1570796E+01
  0.1440000E+01  0.5060029E+03 -0.1565811E+01  0.1654863E-04  0.2680337E+01  0.1588006E+03 -0.2961559E+01  0.1251858E-04  0.2877754E+00  0.1373769E+03  0.1575695E+01  0.2819441E-12 -0.1634347E+01
  0.1480000E+01  0.5229289E+03 -0.1565367E+01  0.1103018E-04  0.2821446E+00  0.1668801E+03 -0.2959434E+01  0.1404881E-05  0.2917740E+01  0.1418500E+03  0.1576131E+01  0.3471883E-12  0.1601090E+01
  0.1520000E+01  0.5401091E+03 -0.1564887E+01  0.2175406E-04 -0.6172875E-01  0.1750885E+03 -0.2957232E+01  0.8944444E-05  0.1151083E+00  0.1463885E+03  0.1576603E+01  0.2538094E-12 -0.1565477E+01
  0.1560000E+01  0.5575877E+03 -0.1564367E+01  0.8288188E-05  0.7271082E+00  0.1834200E+03 -0.2954959E+01  0.9365278E-05 -0.1860231E+01  0.1509964E+03  0.1577114E+01  0.1668433E-12  0.1487655E+01
  0.1600000E+01  0.5753734E+03 -0.1563805E+01  0.3260800E-04 -0.1632254E+00  0.1918776E+03 -0.2952615E+01  0.4879429E-05 -0.6706792E+00  0.1556749E+03  0.1577666E+01  0.7105427E-13 -0.1570796E+01
  0.1640000E+01  0.5934794E+03 -0.1563196E+01  0.1767058E-04  0.2385852E-01  0.2004459E+03 -0.2950195E+01  0.2575577E-04 -0.2840639E+01  0.1604271E+03  0.1578265E+01  0.1836256E-12  0.1539061E+01
  0.1680000E+01  0.6119423E+03 -0.1562536E+01  0.1419386E-04  0.5816433E+00  0.2091247E+03 -0.2947711E+01  0.5141654E-05 -0.7963942E+00  0.1652612E+03  0.1578913E+01  0.1035936E-12 -0.1367751E+01
  0.1720000E+01  0.6307551E+03 -0.1561821E+01  0.8641023E-04  0.2686717E+01  0.2178716E+03 -0.2945133E+01  0.7068061E-05  0.2059185E+01  0.1701747E+03  0.1579616E+01  0.1298067E-12 -0.2034444E+01
  0.1760000E+01  0.6499505E+03 -0.1561047E+01  0.2214955E-04  0.4354469E+00  0.2266848E+03 -0.2942428E+01  0.2372335E-04  0.2886841E+01  0.1751773E+03  0.1580377E+01  0.6691639E-12 -0.1589486E+01
  0.1800000E+01  0.6695204E+03 -0.1560208E+01  0.1353659E-04 -0.1374615E+01  0.2355632E+03 -0.2939638E+01  0.1390896E-04 -0.1797231E+01  0.1802657E+03  0.1581201E+01  0.1047376E-12 -0.2116451E+01
  0.1840000E+01  0.6894949E+03 -0.1559300E+01  0.5367229E-04  0.1607202E+01  0.2446106E+03 -0.2936877E+01  0.1290026E-04  0.7385030E+00  0.1854482E+03  0.1582094E+01  0.1405833E-12  0.1594048E+01
  0.1880000E+01  0.7098903E+03 -0.1558317E+01  0.3194270E-04 -0.6936435E+00  0.2535767E+03 -0.2933916E+01  0.3746156E-04  0.8991840E-02  0.1907266E+03  0.1583061E+01  0.3142018E-12  0.1613324E+01
  0.1920000E+01  0.7307292E+03 -0.1557252E+01  0.5563772E-04  0.2987878E+01  0.2626080E+03 -0.2930882E+01  0.9661630E-05 -0.2185845E+00  0.1961067E+03  0.1584108E+01  0.2023857E-12 -0.1852568E+01
  0.1960000E+01  0.7520214E+03 -0.1556097E+01  0.3570586E-04 -0.4117254E+00  0.2717595E+03 -0.2927863E+01  0.2084121E-04  0.3587660E+00  0.2015889E+03  0.1585243E+01  0.4249479E-12 -0.1702265E+01
  0.2000000E+01  0.7738038E+03 -0.1554845E+01  0.7163367E-04  0.7116384E+00  0.2808364E+03 -0.2924704E+01  0.1479459E-04  0.2824754E+01  0.2071814E+03  0.1586474E+01  0.1816145E-12 -0.1502276E+01
  0.2040000E+01  0.7960568E+03 -0.1553491E+01  0.1002865E-03  0.1258500E+01  0.2899581E+03 -0.2921487E+01  0.2029451E-04  0.1408488E+01  0.2128810E+03  0.1587805E+01  0.8226272E-12 -0.1561986E+01
  0.2080000E+01  0.8188492E+03 -0.1552025E+01  0.6312961E-04  0.1454297E+01  0.2988402E+03 -0.2917977E+01  0.1276429E-04  0.2763763E+01  0.2187024E+03  0.1589246E+01  0.6551331E-12  0.1630049E+01
  0.2120000E+01  0.8421450E+03 -0.1550441E+01  0.8592521E-04 -0.3027373E+01  0.3078563E+03 -0.2914543E+01  0.2371894E-04 -0.2750760E+01  0.2246379E+03  0.1590804E+01  0.3863466E-12 -0.1678224E+01
  0.2160000E+01  0.8659788E+03 -0.1548730E+01  0.1775102E-04 -0.1837545E+01  0.3168708E+03 -0.2911097E+01  0.1198623E-04  0.2463325E+01  0.2306949E+03  0.1592487E+01  0.6592937E-13  0.1424784E+01
  0.2200000E+01  0.8903463E+03 -0.1546881E+01  0.1134110E-03  0.2493185E+01  0.3255924E+03 -0.2907370E+01  0.2106738E-04  0.2492569E+01  0.2368706E+03  0.1594305E+01  0.1845152E-12 -0.1666250E+01
  0.2240000E+01  0.9152799E+03 -0.1544885E+01  0.1017208E-03  0.7899808E+00  0.3344114E+03 -0.2903699E+01  0.8671364E-05 -0.1255181E+01  0.2431716E+03  0.1596268E+01  0.3993586E-12  0.1735945E+01
  0.2280000E+01  0.9408109E+03 -0.1542730E+01  0.3383947E-04  0.2110398E+01  0.3430878E+03 -0.2899946E+01  0.2465128E-04  0.2961047E+01  0.2496033E+03  0.1598387E+01  0.4456253E-12 -0.1548073E+01
  0.2320000E+01  0.9669081E+03 -0.1540407E+01  0.9164145E-04  0.3320994E+00  0.3516118E+03 -0.2896127E+01  0.2767899E-04 -0.2974876E+01  0.2561561E+03  0.1600671E+01  0.3336921E-12  0.1415800E+01
  0.2360000E+01  0.9936316E+03 -0.1537908E+01  0.6279373E-04  0.6432492E+00  0.3600287E+03 -0.2892239E+01  0.2166806E-04  0.2172152E+01  0.2628479E+03  0.1603130E+01  0.6209555E-12  0.1530278E+01
  0.2400000E+01  0.1020919E+04 -0.1535223E+01  0.5499412E-04  0.3109541E+00  0.3682730E+03 -0.2888254E+01  0.2725859E-04  0.7343823E+00  0.2696584E+03  0.1605771E+01  0.3301272E-12  0.1947706E+01
  0.2440000E+01  0.1048779E+04 -0.1532342E+01  0.3090286E-04  0.2446271E+01  0.3764243E+03 -0.2884302E+01  0.6625229E-05  0.3387384E+00  0.2765918E+03  0.1608605E+01  0.1735890E-12 -0.3091634E+01
  0.2480000E+01  0.1077259E+04 -0.1529255E+01  0.9516898E-04  0.7968619E+00  0.3843384E+03 -0.2880304E+01  0.3161317E-04 -0.5043887E+00  0.2836577E+03  0.1611642E+01  0.6171442E-12  0.1535097E+01
  0.2520000E+01  0.1106326E+04 -0.1525950E+01  0.6529313E-04  0.3062685E+00  0.3920189E+03 -0.2876219E+01  0.3722543E-04 -0.3129855E+01  0.2908453E+03  0.1614894E+01  0.7218008E-13  0.1695151E+01
  0.2560000E+01  0.1135976E+04 -0.1522414E+01  0.1237975E-04 -0.1557700E+01  0.3994981E+03 -0.2872032E+01  0.6252443E-05  0.2910134E+01  0.2981520E+03  0.1618372E+01  0.6043907E-12 -0.1687685E+01
  0.2600000E+01  0.1166215E+04 -0.1518637E+01  0.5473093E-04  0.6028752E+00  0.4067785E+03 -0.2867874E+01  0.1479189E-04  0.1445200E+01  0.3055762E+03  0.1622089E+01  0.5104727E-12  0.1785049E+01
  0.2640000E+01  0.1197044E+04 -0.1514608E+01  0.7626505E-04  0.7041084E+00  0.4137897E+03 -0.2863695E+01  0.1335906E-04  0.7167020E+00  0.3131158E+03  0.1626054E+01  0.3027687E-12  0.1438757E+01
  0.2680000E+01  0.1228398E+04 -0.1510321E+01  0.1703187E-03 -0.2774671E+01  0.4206269E+03 -0.2859569E+01  0.4498527E-04 -0.4240987E+00  0.3207549E+03  0.1630272E+01  0.8529148E-12  0.1758887E+01
  0.2720000E+01  0.1260311E+04 -0.1505772E+01  0.5488794E-04  0.8890350E+00  0.4268029E+03 -0.2855056E+01  0.3568913E-04  0.2529546E+01  0.3285004E+03  0.1634750E+01  0.2059145E-12  0.2599161E+01
  0.2760000E+01  0.1292701E+04 -0.1500952E+01  0.1466492E-03 -0.4141808E+00  0.4330826E+03 -0.2850888E+01  0.2615985E-04 -0.1919489E+01  0.3363297E+03  0.1639495E+01  0.7848220E-13 -0.6747410E+00
  0.2800000E+01  0.1325630E+04 -0.1495851E+01  0.1398668E-03  0.2028974E+01  0.4390392E+03 -0.2846743E+01  0.4124040E-04 -0.2696669E+01  0.3442611E+03  0.1644516E+01  0.2199887E-12  0.2396173E+01
  0.2840000E+01  0.1358859E+04 -0.1490465E+01  0.2951859E-04 -0.1264234E+01  0.4447008E+03 -0.2842681E+01  0.5462976E-04 -0.6514304E+00  0.3522267E+03  0.1649818E+01  0.6358967E-12 -0.1598567E+01
  0.2880000E+01  0.1392552E+04 -0.1484776E+01  0.2971487E-03 -0.4189942E+00  0.4499456E+03 -0.2838293E+01  0.5494112E-04 -0.1534637E+01  0.3602688E+03  0.1655418E+01  0.6714324E-12 -0.1236998E+01
  0.2920000E+01  0.1426599E+04 -0.1478779E+01  0.1392665E-03 -0.2545466E+01  0.4552076E+03 -0.2834223E+01  0.1795766E-04  0.2770644E+01  0.3683571E+03  0.1661322E+01  0.5552957E-12  0.1711372E+01
  0.2960000E+01  0.1460999E+04 -0.1472468E+01  0.1078555E-03 -0.2630765E+01  0.4601374E+03 -0.2830176E+01  0.1240803E-04  0.5594044E+00  0.3764881E+03  0.1667536E+01  0.2760333E-12 -0.7044940E+00
  0.3000000E+01  0.1495740E+04 -0.1465836E+01  0.4650491E-04 -0.1159404E+01  0.4644468E+03 -0.2825900E+01  0.3439467E-04  0.1980809E+01  0.3846523E+03  0.1674067E+01  0.1886914E-11 -0.1549613E+01
  0.3040000E+01  0.1530707E+04 -0.1458892E+01  0.1507209E-03  0.1450095E+01  0.4685252E+03 -0.2821696E+01  0.4040690E-04 -0.1406212E+01  0.3928321E+03  0.1680906E+01  0.8119289E-12 -0.1393620E+01
  0.3080000E+01  0.1565837E+04 -0.1451633E+01  0.1382859E-03 -0.1436685E+01  0.4724319E+03 -0.2817658E+01  0.1014198E-04 -0.1215263E+01  0.4010010E+03  0.1688055E+01  0.3634218E-12 -0.1127348E+01
  0.3120000E+01  0.1601080E+04 -0.1444052E+01  0.2179099E-03 -0.5197472E-01  0.4758488E+03 -0.2813527E+01  0.2914538E-04 -0.7713709E+00  0.4091491E+03  0.1695522E+01  0.8313350E-14  0.0000000E+00
  0.3160000E+01  0.1636407E+04 -0.1436152E+01  0.1962886E-03  0.1319359E+01  0.4791278E+03 -0.2809658E+01  0.1309110E-04  0.1561579E+01  0.4172714E+03  0.1703303E+01  0.6848440E-12 -0.1578993E+01
  0.3200000E+01  0.1671805E+04 -0.1427917E+01  0.1112105E-03 -0.1786742E+00  0.4819578E+03 -0.2805796E+01  0.6173446E-04 -0.3562612E+00  0.4253577E+03  0.1711414E+01  0.1728124E-12  0.6336330E+00
  0.3240000E+01  0.1707035E+04 -0.1419345E+01  0.6075962E-04 -0.1243047E+01  0.4847937E+03 -0.2801997E+01  0.2687976E-04 -0.1814214E+01  0.4333473E+03  0.1719857E+01  0.1916642E-12  0.7216549E+00
  0.3280000E+01  0.1742205E+04 -0.1410427E+01  0.1980728E-03 -0.2102059E+01  0.4871749E+03 -0.2798085E+01  0.2101449E-04  0.2678933E+01  0.4412673E+03  0.1728641E+01  0.4618082E-12  0.1282965E+01
  0.3320000E+01  0.1777225E+04 -0.1401168E+01  0.2292813E-03 -0.2308230E+01  0.4890936E+03 -0.2794077E+01  0.2586827E-04  0.2960695E+01  0.4490912E+03  0.1737764E+01  0.2031217E-12 -0.4831257E+00
  0.3360000E+01  0.1812043E+04 -0.1391571E+01  0.1173774E-03  0.2177477E+01  0.4909821E+03 -0.2790398E+01  0.4403537E-04 -0.2712302E+01  0.4568055E+03  0.1747220E+01  0.1881990E-12 -0.2048627E+01
  0.3400000E+01  0.1846481E+04 -0.1381644E+01  0.2078234E-03  0.1244073E+01  0.4925166E+03 -0.2786707E+01  0.1760566E-04 -0.1009481E+01  0.4643667E+03  0.1757002E+01  0.3914233E-12 -0.1183127E+01
  0.3440000E+01  0.1880537E+04 -0.1371398E+01  0.2723407E-04  0.1982021E+01  0.4935907E+03 -0.2782869E+01  0.6531119E-04 -0.1928825E+01  0.4717785E+03  0.1767096E+01  0.4487077E-12 -0.2083186E+01
  0.3480000E+01  0.1914144E+04 -0.1360828E+01  0.1607146E-03  0.5956582E-01  0.4945770E+03 -0.2779333E+01  0.1245257E-04 -0.1310684E+01  0.4790169E+03  0.1777511E+01  0.4871514E-12 -0.2486671E+01
  0.3520000E+01  0.1947133E+04 -0.1349942E+01  0.1514561E-03  0.6346526E+00  0.4950723E+03 -0.2775650E+01  0.3347685E-04  0.1820187E+01  0.4860469E+03  0.1788237E+01  0.3269580E-12  0.1676174E+01
  0.3560000E+01  0.1979541E+04 -0.1338741E+01  0.1389377E-03 -0.1470786E+01  0.4953879E+03 -0.2772182E+01  0.4987699E-04  0.2005461E+01  0.4928800E+03  0.1799272E+01  0.1009676E-11 -0.1785389E+01
  0.3600000E+01  0.2011212E+04 -0.1327219E+01  0.1261451E-03 -0.2599856E+01  0.4953263E+03 -0.2768734E+01  0.1576455E-04 -0.8900943E+00  0.4994699E+03  0.1810623E+01  0.5612968E-12 -0.3118805E+01
  0.3640000E+01  0.2042031E+04 -0.1315384E+01  0.2713633E-03  0.2100248E+01  0.4953551E+03 -0.2765432E+01  0.5058810E-04  0.1975322E+01  0.5057884E+03  0.1822284E+01  0.7918746E-12 -0.1944859E+01
  0.3680000E+01  0.2072052E+04 -0.1303210E+01  0.1272858E-03 -0.1430838E+01  0.4947853E+03 -0.2761815E+01  0.4135670E-05 -0.3744963E+00  0.5118608E+03  0.1834276E+01  0.1647375E-11  0.1444473E+01
  0.3720000E+01  0.2101106E+04 -0.1290738E+01  0.1726017E-03  0.1933645E+01  0.4942018E+03 -0.2758564E+01  0.5813336E-04  0.8616346E+00  0.5176317E+03  0.1846564E+01  0.9337959E-12 -0.2153402E+01
  0.3760000E+01  0.2129112E+04 -0.1277978E+01  0.1182650E-03  0.2093457E+01  0.4933611E+03 -0.2755359E+01  0.9050321E-04  0.1594757E+01  0.5230881E+03  0.1859136E+01  0.2043838E-11 -0.1565077E+01
  0.3800000E+01  0.2155992E+04 -0.1264921E+01  0.1333495E-03 -0.1172545E+00  0.4921629E+03 -0.2752067E+01  0.7845797E-04  0.1069473E+01  0.5282056E+03  0.1872003E+01  0.2431052E-11  0.1722707E+01
  0.3840000E+01  0.2181697E+04 -0.1251611E+01  0.1559957E-03 -0.1161925E+01  0.4904611E+03 -0.2748443E+01  0.5188747E-04  0.2352929E+00  0.5329915E+03  0.1885114E+01  0.2772939E-12 -0.2447642E+01
  0.3880000E+01  0.2206108E+04 -0.1238039E+01  0.3582471E-04  0.1180869E+00  0.4888144E+03 -0.2745290E+01  0.1527974E-04 -0.1054573E+01  0.5374025E+03  0.1898482E+01  0.4563263E-12  0.1650175E+01
  0.3920000E+01  0.2229148E+04 -0.1224226E+01  0.1047755E-03 -0.1435617E-01  0.4869330E+03 -0.2742204E+01  0.4512254E-04 -0.1550249E+01  0.5414308E+03  0.1912086E+01  0.1034428E-11 -0.2692951E-01
  0.3960000E+01  0.2250753E+04 -0.1210180E+01  0.2742518E-03  0.9521382E+00  0.4847173E+03 -0.2739035E+01  0.2833870E-04  0.1965556E+01  0.5450634E+03  0.1925919E+01  0.1111459E-11  0.1563676E+01
  0.4000000E+01  0.2270763E+04 -0.1195922E+01  0.1182111E-03  0.2364094E+01  0.4822927E+03 -0.2735955E+01  0.7257322E-04 -0.1327378E+01  0.5482642E+03  0.1939957E+01  0.1649504E-11 -0.1434687E+01
  0.4040000E+01  0.2289334E+04 -0.1181445E+01  0.1225098E-03  0.4791118E-02  0.4795374E+03 -0.2732826E+01  0.8667364E-05 -0.1914014E+01  0.5510614E+03  0.1954212E+01  0.3613984E-12  0.1194289E+00
  0.4080000E+01  0.2306108E+04 -0.1166742E+01  0.8954317E-04 -0.2263101E+01  0.4772358E+03 -0.2730545E+01  0.2159040E-04  0.2377770E+01  0.5534041E+03  0.1968680E+01  0.1515896E-11 -0.1676174E+01
  0.4120000E+01  0.2321209E+04 -0.1151872E+01  0.2250884E-03 -0.1340417E+01  0.4738388E+03 -0.2726939E+01  0.6844692E-04 -0.1392879E+01  0.5552805E+03  0.1983317E+01  0.1169258E-11  0.1862853E+01
  0.4160000E+01  0.2334361E+04 -0.1136798E+01  0.1587348E-03  0.1589536E+01  0.4706029E+03 -0.2723945E+01  0.8830796E-04 -0.1776839E+01  0.5566768E+03  0.1998143E+01  0.1149420E-11 -0.2299908E+01
  0.4200000E+01  0.2346150E+04 -0.1121531E+01  0.2124912E-03  0.1527045E+01  0.4673742E+03 -0.2721376E+01  0.2816946E-04 -0.5436628E+00  0.5577126E+03  0.2013157E+01  0.1102340E-11  0.6808187E+00
  0.4240000E+01  0.2355438E+04 -0.1106236E+01  0.3458394E-04 -0.1627489E+01  0.4639510E+03 -0.2718800E+01  0.4599379E-04  0.9115313E+00  0.5580802E+03  0.2028209E+01  0.1265205E-11  0.7622444E+00
  0.4280000E+01  0.2363076E+04 -0.1090768E+01  0.3550221E-03 -0.9318615E+00  0.4600276E+03 -0.2715699E+01  0.5800516E-04  0.9436571E+00  0.5580442E+03  0.2043421E+01  0.1873917E-12  0.2895691E+01
  0.4320000E+01  0.2368731E+04 -0.1075234E+01  0.2386648E-03 -0.1016165E+01  0.4560211E+03 -0.2712786E+01  0.7875820E-04  0.1039105E+01  0.5575161E+03  0.2058691E+01  0.5436675E-12  0.2750602E+01
  0.4360000E+01  0.2372634E+04 -0.1059570E+01  0.7513916E-04 -0.3980041E+00  0.4520921E+03 -0.2710430E+01  0.5233787E-04 -0.1624957E+01  0.5565417E+03  0.2074088E+01  0.1211720E-11  0.4475665E-01
  0.4400000E+01  0.2375119E+04 -0.1043601E+01  0.3284338E-03 -0.1527115E+01  0.4478917E+03 -0.2707963E+01  0.5953955E-04 -0.1600266E+01  0.5552503E+03  0.2089762E+01  0.3816981E-12 -0.2786042E+01
  0.4440000E+01  0.2374115E+04 -0.1028109E+01  0.2658383E-03 -0.1566158E+01  0.4431382E+03 -0.2704635E+01  0.3976851E-04 -0.2182399E+01  0.5530679E+03  0.2104986E+01  0.1667744E-11  0.1138481E+01
  0.4480000E+01  0.2371859E+04 -0.1012359E+01  0.3689901E-04 -0.1429807E+01  0.4387880E+03 -0.2702525E+01  0.4326619E-04  0.9683339E+00  0.5506047E+03  0.2120448E+01  0.6179485E-12 -0.2854337E+01
  0.4520000E+01  0.2367568E+04 -0.9965753E+00  0.9667349E-04 -0.1748371E+01  0.4340968E+03 -0.2700081E+01  0.6220698E-04  0.2211798E+01  0.5476641E+03  0.2135933E+01  0.6047835E-12 -0.2534028E+01
  0.4560000E+01  0.2361246E+04 -0.9807958E+00  0.1053449E-03 -0.1397033E+01  0.4291544E+03 -0.2697380E+01  0.9587594E-05 -0.2828758E+01  0.5442422E+03  0.2151407E+01  0.4958949E-12 -0.1655633E+01
  0.4600000E+01  0.2353045E+04 -0.9650345E+00  0.1976901E-03  0.1879491E+01  0.4240266E+03 -0.2694566E+01  0.1174747E-03  0.1632414E+01  0.5403796E+03  0.2166857E+01  0.7774558E-12  0.1415475E+01
  0.4640000E+01  0.2342519E+04 -0.9493049E+00  0.8163124E-04  0.3086510E+01  0.4192285E+03 -0.2692853E+01  0.3068394E-04  0.1716389E+01  0.5359876E+03  0.2182265E+01  0.8559683E-12  0.6397698E+00
  0.4680000E+01  0.2330230E+04 -0.9336202E+00  0.1558368E-03 -0.1175449E+01  0.4138183E+03 -0.2690018E+01  0.5822926E-04 -0.1248594E+01  0.5311929E+03  0.2197620E+01  0.8598014E-12  0.2045254E+01
  0.4720000E+01  0.2316092E+04 -0.9180228E+00  0.1037211E-03  0.1601718E+01  0.4087927E+03 -0.2688503E+01  0.1398457E-03 -0.1245489E+01  0.5259832E+03  0.2212883E+01  0.5226820E-12  0.5390440E+00
  0.4760000E+01  0.2299930E+04 -0.9024978E+00  0.3754586E-03  0.1507341E+01  0.4032714E+03 -0.2686001E+01  0.4434865E-04  0.2270299E+01  0.5203180E+03  0.2228068E+01  0.6581430E-12 -0.2078987E+01
  0.4800000E+01  0.2281961E+04 -0.8870724E+00  0.2559982E-03 -0.1784760E+01  0.3977226E+03 -0.2683702E+01  0.7978591E-05 -0.2249334E+00  0.5142601E+03  0.2243145E+01  0.4961522E-12  0.2808973E+01
  0.4840000E+01  0.2262344E+04 -0.8717787E+00  0.1237091E-04 -0.1015441E+01  0.3920492E+03 -0.2681352E+01  0.2942370E-04  0.1445989E+01  0.5078526E+03  0.2258079E+01  0.2144900E-12  0.2980562E+01
  0.4880000E+01  0.2240757E+04 -0.8565992E+00  0.8320259E-04 -0.1543167E+01  0.3862950E+03 -0.2679019E+01  0.3964927E-04 -0.1431548E+01  0.5010242E+03  0.2272888E+01  0.7555334E-12  0.2715796E+01
  0.4920000E+01  0.2217641E+04 -0.8415599E+00  0.1729659E-03  0.1285663E+01  0.3804079E+03 -0.2676577E+01  0.1304774E-04  0.2630315E+01  0.4938775E+03  0.2287551E+01  0.6240671E-12 -0.4029380E+00
  0.4960000E+01  0.2192871E+04 -0.8266774E+00  0.1332562E-03  0.1287318E+01  0.3745382E+03 -0.2674451E+01  0.5578531E-04 -0.1287354E+01  0.4863913E+03  0.2302046E+01  0.1207358E-11 -0.2830083E+01
  0.5000000E+01  0.2166322E+04 -0.8119410E+00  0.1577460E-03  0.1086748E+01  0.3688300E+03 -0.2672981E+01  0.2328892E-04  0.1062559E+01  0.4785588E+03  0.2316372E+01  0.6063118E-12  0.1926138E+01
  0.5040000E+01  0.2138870E+04 -0.7974252E+00  0.1505109E-03 -0.1261307E+01  0.3626539E+03 -0.2670266E+01  0.6909905E-04 -0.1274527E+01  0.4705459E+03  0.2330484E+01  0.1030479E-11  0.3106833E+01
  0.5080000E+01  0.2109736E+04 -0.7830670E+00  0.4700640E-03  0.1421869E+01  0.3565981E+03 -0.2668143E+01  0.7002474E-04 -0.1682265E+01  0.4622085E+03  0.2344420E+01  0.6863409E-12 -0.3042823E+01
  0.5120000E+01  0.2078821E+04 -0.7688648E+00  0.3676619E-03  0.1662261E+01  0.3507814E+03 -0.2667061E+01  0.5887486E-04  0.1444704E+01  0.4535306E+03  0.2358177E+01  0.1548779E-11 -0.2858907E+01
  0.5160000E+01  0.2047123E+04 -0.7548855E+00  0.5719583E-04  0.2604448E+01  0.3447003E+03 -0.2665304E+01  0.7263634E-04  0.1511886E+01  0.4447197E+03  0.2371709E+01  0.5189446E-12 -0.2827348E+01
  0.5200000E+01  0.2013813E+04 -0.7410759E+00  0.1185377E-03  0.1536119E+01  0.3385214E+03 -0.2663229E+01  0.3499502E-04 -0.1013046E+01  0.4356148E+03  0.2385048E+01  0.2586073E-12 -0.7459242E+00
  0.5240000E+01  0.1979743E+04 -0.7275066E+00  0.1637774E-04  0.2306502E+01  0.3324550E+03 -0.2661939E+01  0.8486249E-04 -0.1495224E+01  0.4263880E+03  0.2398141E+01  0.5911532E-12 -0.2702483E+01
  0.5280000E+01  0.1944476E+04 -0.7141573E+00  0.3989488E-03  0.1760032E+01  0.3264216E+03 -0.2660962E+01  0.3596740E-04 -0.1759062E+01  0.4169637E+03  0.2410999E+01  0.1351961E-11  0.2693119E+01
  0.5320000E+01  0.1907987E+04 -0.7009838E+00  0.3501562E-03 -0.1584307E+01  0.3199877E+03 -0.2658121E+01  0.9035326E-04 -0.1538289E+01  0.4073373E+03  0.2423657E+01  0.8101800E-12  0.2088428E+01
  0.5360000E+01  0.1870770E+04 -0.6880450E+00  0.1099496E-03 -0.4028018E+00  0.3138706E+03 -0.2656989E+01  0.1063527E-03  0.1576638E+01  0.3976050E+03  0.2436080E+01  0.1139336E-11 -0.3099796E+01
  0.5400000E+01  0.1832352E+04 -0.6752769E+00  0.1624847E-03 -0.1123493E+01  0.3078101E+03 -0.2656159E+01  0.7213673E-04  0.1806463E+01  0.3876985E+03  0.2448291E+01  0.9209605E-12 -0.1556271E+01
  0.5440000E+01  0.1793938E+04 -0.6628758E+00  0.1000432E-03 -0.1479398E+01  0.3016455E+03 -0.2655129E+01  0.6932697E-05 -0.7198156E+00  0.3778438E+03  0.2460145E+01  0.1194364E-11  0.1776150E+01
  0.5480000E+01  0.1753794E+04 -0.6505166E+00  0.3081069E-03 -0.1644057E+01  0.2951523E+03 -0.2651781E+01  0.1124823E-03  0.1598023E+01  0.3677047E+03  0.2471902E+01  0.3597309E-12  0.1852290E+01
  0.5520000E+01  0.1713837E+04 -0.6385479E+00  0.1235756E-03 -0.1838426E+01  0.2890061E+03 -0.2650816E+01  0.1363807E-03  0.1688131E+01  0.3576568E+03  0.2483290E+01  0.3413184E-12 -0.3064196E+00
  0.5560000E+01  0.1672847E+04 -0.6267124E+00  0.2813354E-03 -0.1504538E+01  0.2828974E+03 -0.2649921E+01  0.6172116E-04  0.1574515E+01  0.3474785E+03  0.2494494E+01  0.5494432E-12  0.1879579E+01
  0.5600000E+01  0.1631479E+04 -0.6151408E+00  0.1312596E-03 -0.1223843E+01  0.2767874E+03 -0.2648875E+01  0.4200350E-05 -0.2118821E+01  0.3372978E+03  0.2505416E+01  0.1000612E-11  0.1119098E+01
  0.5640000E+01  0.1589798E+04 -0.6038142E+00  0.1737844E-03 -0.1642510E+01  0.2707129E+03 -0.2648054E+01  0.8371694E-04  0.1760690E+01  0.3271357E+03  0.2516050E+01  0.1028234E-11 -0.1797755E+01
  0.5680000E+01  0.1547130E+04 -0.5926180E+00  0.4978037E-03  0.1517756E+01  0.2645997E+03 -0.2646514E+01  0.7430864E-04 -0.1568241E+01  0.3168384E+03  0.2526537E+01  0.8762249E-12  0.7787824E+00
  0.5720000E+01  0.1504505E+04 -0.5817128E+00  0.1792149E-03  0.1805545E+01  0.2588095E+03 -0.2647753E+01  0.5158806E-04 -0.1536260E+01  0.3066374E+03  0.2536689E+01  0.3526481E-12 -0.1968358E+01
  0.5760000E+01  0.1461248E+04 -0.5709618E+00  0.3438784E-03  0.1634635E+01  0.2525570E+03 -0.2644569E+01  0.4042932E-04  0.1523432E+01  0.2963806E+03  0.2546662E+01  0.1151873E-11 -0.2648892E+01
  0.5800000E+01  0.1417720E+04 -0.5603600E+00  0.3390365E-03 -0.1529655E+01  0.2464641E+03 -0.2642302E+01  0.8148929E-05 -0.1684461E+01  0.2861593E+03  0.2556427E+01  0.3679243E-12 -0.1462072E+01
  0.5840000E+01  0.1374195E+04 -0.5501276E+00  0.1328052E-03 -0.1533980E+01  0.2406475E+03 -0.2642573E+01  0.4890111E-05 -0.2585726E+01  0.2760112E+03  0.2565815E+01  0.7259387E-12  0.2012873E+01
  0.5880000E+01  0.1330437E+04 -0.5400417E+00  0.5064323E-03 -0.1593666E+01  0.2347637E+03 -0.2641742E+01  0.1242901E-04 -0.1543600E+01  0.2659050E+03  0.2574996E+01  0.5754759E-12 -0.3082570E+01
  0.5920000E+01  0.1286542E+04 -0.5301602E+00  0.1462413E-03  0.1641658E+01  0.2289902E+03 -0.2641690E+01  0.9684273E-05  0.1691648E+01  0.2558600E+03  0.2583922E+01  0.9500910E-12  0.2338584E+01
  0.5960000E+01  0.1242518E+04 -0.5204619E+00  0.1038969E-03 -0.1819273E+01  0.2231645E+03 -0.2640372E+01  0.3763266E-04  0.1650755E+01  0.2458740E+03  0.2592615E+01  0.1074860E-11  0.1043785E+01
  0.6000000E+01  0.1198340E+04 -0.5109134E+00  0.4999834E-04 -0.9509463E+00  0.2173837E+03 -0.2638703E+01  0.3633652E-05 -0.2617466E+01  0.2359388E+03  0.2601107E+01  0.2772707E-11 -0.1376416E+01
  0.6039999E+01  0.1154428E+04 -0.5016680E+00  0.2105472E-04 -0.1375798E+01  0.2118176E+03 -0.2639646E+01  0.7359056E-04 -0.1623170E+01  0.2261460E+03  0.2609237E+01  0.2210964E-11  0.1743624E+01