VARIABLES="w (rad/s)"  
"abs(F   1   1)" "angle(F   1   1)"
"abs(F   1   2)" "angle(F   1   2)"
"abs(F   1   3)" "angle(F   1   3)"
"abs(F   1   4)" "angle(F   1   4)"
"abs(F   1   5)" "angle(F   1   5)"
"abs(F   1   6)" "angle(F   1   6)"
Zone t="Excitation force - beta =   0.000 deg",I=   525,F=POINT
  0.4000000E-01  0.3036780E+02 -0.1570798E+01  0.1157170E-02 -0.3141575E+01  0.3764035E+04 -0.5211375E-05  0.6020892E-03 -0.6646407E-04  0.8223942E+01  0.1570799E+01  0.5695580E-13  0.6405786E-01
  0.8000000E-01  0.6074550E+02 -0.1570793E+01  0.2724773E-02 -0.3141567E+01  0.3762498E+04 -0.2084762E-04  0.2538530E-03 -0.6657445E-04  0.1642206E+02  0.1570799E+01  0.1723421E-12  0.1426186E+00
  0.1200000E+00  0.9113681E+02 -0.1570787E+01  0.6895555E-03 -0.4115047E-03  0.3760028E+04 -0.4695651E-04  0.1659505E-02  0.2967432E-06  0.2463564E+02  0.1570805E+01  0.2283325E-12  0.8974249E-01
  0.1600000E+00  0.1215382E+03 -0.1570781E+01  0.1406836E-02  0.3141541E+01  0.3756551E+04 -0.8359185E-04  0.4905250E-03 -0.3141495E+01  0.3284360E+02  0.1570812E+01  0.2877394E-12  0.2987761E+01
  0.2000000E+00  0.1520567E+03 -0.1570772E+01  0.1949500E-02  0.5006546E-04  0.3752075E+04 -0.1308550E-03  0.1933238E-03  0.3141401E+01  0.4107256E+02  0.1570821E+01  0.7964692E-12  0.2966720E-01
  0.2400000E+00  0.1824810E+03 -0.1570761E+01  0.8869108E-03  0.3141552E+01  0.3746690E+04 -0.1888831E-03  0.4380130E-04  0.5391086E-02  0.4931524E+02  0.1570831E+01  0.6821599E-12  0.3100646E+01
  0.2800000E+00  0.2130226E+03 -0.1570748E+01  0.3706741E-02  0.3141428E+01  0.3740342E+04 -0.2577958E-03  0.7085366E-03  0.3916995E-03  0.5756187E+02  0.1570845E+01  0.1254076E-12 -0.2701132E+01
  0.3200000E+00  0.2436166E+03 -0.1570732E+01  0.1487817E-02 -0.8913750E-04  0.3733043E+04 -0.3377730E-03  0.5283827E-03  0.6342905E-03  0.6581918E+02  0.1570859E+01  0.2050702E-12  0.5888674E+00
  0.3600000E+00  0.2742789E+03 -0.1570715E+01  0.9598572E-03 -0.8749526E-03  0.3724803E+04 -0.4290332E-03  0.6116689E-03 -0.3141372E+01  0.7409209E+02  0.1570878E+01  0.4753167E-12 -0.2981417E+00
  0.4000000E+00  0.3050182E+03 -0.1570695E+01  0.3782223E-02 -0.1118900E-03  0.3715626E+04 -0.5318012E-03  0.1613959E-02  0.6069755E-03  0.8237886E+02  0.1570897E+01  0.5172500E-12 -0.1108089E+00
  0.4400000E+00  0.3358449E+03 -0.1570674E+01  0.9535883E-03 -0.3140989E+01  0.3705510E+04 -0.6463561E-03  0.5758206E-03  0.3896742E-03  0.9068565E+02  0.1570919E+01  0.1383879E-12  0.2557506E+01
  0.4800000E+00  0.3667611E+03 -0.1570649E+01  0.1020830E-02 -0.8288235E-03  0.3694468E+04 -0.7729871E-03  0.1035323E-02  0.3140832E+01  0.9901140E+02  0.1570944E+01  0.2970787E-12 -0.2903571E+00
  0.5200000E+00  0.3977855E+03 -0.1570621E+01  0.3456747E-02 -0.3140911E+01  0.3682500E+04 -0.9120450E-03  0.9792892E-03  0.4829091E-03  0.1073595E+03  0.1570971E+01  0.4253685E-12  0.2487593E+01
  0.5600000E+00  0.4289198E+03 -0.1570591E+01  0.2376453E-02  0.5853358E-03  0.3669621E+04 -0.1063894E-02  0.2509871E-03 -0.1604756E-02  0.1157314E+03  0.1571002E+01  0.5968541E-12  0.2987090E+00
  0.6000000E+00  0.4601722E+03 -0.1570558E+01  0.3120394E-02  0.7091484E-04  0.3655811E+04 -0.1228933E-02  0.1505339E-03 -0.3136796E+01  0.1241283E+03  0.1571035E+01  0.4348404E-12 -0.2124633E+01
  0.6400000E+00  0.4915668E+03 -0.1570521E+01  0.1895065E-03 -0.3140460E+01  0.3641091E+04 -0.1407615E-02  0.1134014E-02 -0.9660656E-04  0.1325551E+03  0.1571071E+01  0.1685760E-12  0.1237583E+01
  0.6800000E+00  0.5230988E+03 -0.1570482E+01  0.3229176E-03 -0.3126853E+01  0.3625476E+04 -0.1600432E-02  0.1665851E-02  0.3141043E+01  0.1410113E+03  0.1571111E+01  0.1688461E-12 -0.1900898E+01
  0.7200000E+00  0.5547856E+03 -0.1570439E+01  0.3462451E-02  0.3141550E+01  0.3608945E+04 -0.1807903E-02  0.8209444E-03  0.4425152E-03  0.1495008E+03  0.1571154E+01  0.2986124E-12 -0.2451318E+01
  0.7600000E+00  0.5866390E+03 -0.1570392E+01  0.9772355E-04 -0.3102752E+01  0.3591526E+04 -0.2030608E-02  0.1793492E-03  0.3136337E+01  0.1580256E+03  0.1571201E+01  0.3302216E-12  0.2583791E+01
  0.8000000E+00  0.6186721E+03 -0.1570341E+01  0.1080447E-02 -0.3139663E+01  0.3573217E+04 -0.2269186E-02  0.7708757E-04  0.3130741E+01  0.1665876E+03  0.1571252E+01  0.5641996E-13  0.1009218E+00
  0.8400000E+00  0.6508890E+03 -0.1570285E+01  0.2473731E-02 -0.3140242E+01  0.3554036E+04 -0.2524296E-02  0.9659862E-03  0.1106100E-02  0.1751893E+03  0.1571307E+01  0.2299002E-12 -0.5008958E-01
  0.8800000E+00  0.6833132E+03 -0.1570225E+01  0.1396718E-02  0.3138481E+01  0.3533962E+04 -0.2796672E-02  0.1334831E-02 -0.1228255E-02  0.1838364E+03  0.1571368E+01  0.3086131E-12 -0.3837130E+00
  0.9200000E+00  0.7159523E+03 -0.1570161E+01  0.2560602E-02  0.1592013E-02  0.3513047E+04 -0.3087072E-02  0.8201080E-03  0.1434640E-02  0.1925292E+03  0.1571432E+01  0.1497287E-12 -0.7654313E+00
  0.9600000E+00  0.7488092E+03 -0.1570090E+01  0.4616950E-02  0.3138411E-03  0.3491212E+04 -0.3396302E-02  0.8646008E-03 -0.3138615E+01  0.2012667E+03  0.1571502E+01  0.4419145E-12 -0.2480211E+01
  0.1000000E+01  0.7819188E+03 -0.1570014E+01  0.9489252E-03  0.3140482E+01  0.3468563E+04 -0.3725437E-02  0.1877712E-02 -0.3140283E+01  0.2100594E+03  0.1571578E+01  0.4143179E-12  0.2859170E+01
  0.1040000E+01  0.8152753E+03 -0.1569932E+01  0.4049115E-02  0.3140424E+01  0.3445076E+04 -0.4075290E-02  0.2216628E-04  0.7541072E-01  0.2189055E+03  0.1571661E+01  0.6317937E-12 -0.1259633E-01
  0.1080000E+01  0.8489049E+03 -0.1569843E+01  0.3902579E-02 -0.8108512E-03  0.3420742E+04 -0.4446925E-02  0.8732102E-03  0.1751912E-02  0.2278102E+03  0.1571749E+01  0.4065519E-12  0.3133029E+01
  0.1120000E+01  0.8828116E+03 -0.1569747E+01  0.1420155E-02  0.3138980E+01  0.3395571E+04 -0.4841466E-02  0.7932067E-03  0.3140397E+01  0.2367742E+03  0.1571845E+01  0.8518833E-12 -0.1363291E+01
  0.1160000E+01  0.9170333E+03 -0.1569643E+01  0.2908869E-02  0.3141419E+01  0.3369590E+04 -0.5259997E-02  0.1247491E-02  0.3140281E+01  0.2458051E+03  0.1571949E+01  0.1701473E-12  0.1197851E+01
  0.1200000E+01  0.9515740E+03 -0.1569531E+01  0.3753993E-03 -0.2169059E-01  0.3342788E+04 -0.5703915E-02  0.6037613E-03 -0.6532042E-02  0.2549053E+03  0.1572061E+01  0.1192701E-12 -0.6989338E+00
  0.1240000E+01  0.9864258E+03 -0.1569409E+01  0.1409572E-02  0.3136874E+01  0.3315229E+04 -0.6174806E-02  0.5071253E-04 -0.2250436E+00  0.2640723E+03  0.1572183E+01  0.3609074E-12  0.1122232E-01
  0.1280000E+01  0.1021667E+04 -0.1569278E+01  0.2470534E-02 -0.3130976E+01  0.3286855E+04 -0.6673678E-02  0.3339991E-03  0.1685546E-01  0.2733227E+03  0.1572314E+01  0.1048427E-12 -0.3072410E+01
  0.1320000E+01  0.1057261E+04 -0.1569136E+01  0.1017684E-02 -0.3139070E+01  0.3257710E+04 -0.7202208E-02  0.1599352E-02  0.3139964E+01  0.2826495E+03  0.1572457E+01  0.1786522E-12 -0.1103933E+00
  0.1360000E+01  0.1093243E+04 -0.1568982E+01  0.1867614E-02 -0.1844624E-01  0.3227792E+04 -0.7762051E-02  0.1232381E-02  0.3654084E-02  0.2920599E+03  0.1572611E+01  0.3762427E-12  0.3428333E+00
  0.1400000E+01  0.1129649E+04 -0.1568815E+01  0.9087809E-04  0.1111370E+00  0.3197177E+04 -0.8354800E-02  0.7850515E-04 -0.6812659E-02  0.3015619E+03  0.1572778E+01  0.3477453E-12  0.2945199E+01
  0.1440000E+01  0.1166465E+04 -0.1568634E+01  0.7436959E-03  0.3132430E+01  0.3165823E+04 -0.8982081E-02  0.8116121E-03  0.3137124E+01  0.3111558E+03  0.1572959E+01  0.8290017E-12 -0.2721349E+01
  0.1480000E+01  0.1203773E+04 -0.1568438E+01  0.3417672E-03  0.7525051E-02  0.3133729E+04 -0.9647087E-02  0.1126867E-02  0.3141515E+01  0.3208457E+03  0.1573155E+01  0.6881699E-12  0.1586078E+01
  0.1520000E+01  0.1241530E+04 -0.1568225E+01  0.1826270E-02 -0.3140776E+01  0.3100948E+04 -0.1035084E-01  0.7477190E-03  0.1538325E-02  0.3306388E+03  0.1573367E+01  0.3857477E-12 -0.2648038E+01
  0.1560000E+01  0.1279788E+04 -0.1567995E+01  0.1923680E-02  0.2569564E-02  0.3067499E+04 -0.1109524E-01  0.6758690E-04 -0.3008420E+01  0.3405402E+03  0.1573597E+01  0.5897746E-12  0.6525369E+00
  0.1600000E+01  0.1318563E+04 -0.1567745E+01  0.1001141E-02 -0.3137044E+01  0.3033385E+04 -0.1188309E-01  0.1392486E-02 -0.3139127E+01  0.3505528E+03  0.1573847E+01  0.1271057E-12 -0.1107149E+01
  0.1640000E+01  0.1357879E+04 -0.1567474E+01  0.1419044E-02  0.3141306E+01  0.2998636E+04 -0.1271649E-01  0.6025368E-03 -0.3128830E+01  0.3606812E+03  0.1574118E+01  0.3225912E-12 -0.1191272E+01
  0.1680000E+01  0.1397780E+04 -0.1567180E+01  0.6756564E-03  0.1076979E-01  0.2963263E+04 -0.1359754E-01  0.1875050E-03 -0.2086758E-01  0.3709353E+03  0.1574412E+01  0.2760605E-12 -0.1285355E+01
  0.1720000E+01  0.1438267E+04 -0.1566860E+01  0.2589968E-02  0.1478538E-01  0.2927323E+04 -0.1452850E-01  0.9109076E-03  0.3134779E+01  0.3813145E+03  0.1574732E+01  0.7214043E-12 -0.2622813E+01
  0.1760000E+01  0.1479380E+04 -0.1566513E+01  0.1645937E-03  0.3085433E+01  0.2890843E+04 -0.1551504E-01  0.1118170E-02  0.5617465E-02  0.3918292E+03  0.1575079E+01  0.1040543E-11 -0.1747620E+01
  0.1800000E+01  0.1521122E+04 -0.1566136E+01  0.1722971E-02 -0.3133602E+01  0.2853820E+04 -0.1655763E-01  0.6603252E-03 -0.2030517E-01  0.4024782E+03  0.1575456E+01  0.6089348E-12 -0.7214096E+00
  0.1840000E+01  0.1563531E+04 -0.1565727E+01  0.6911284E-03  0.7658271E-01  0.2816169E+04 -0.1765847E-01  0.6398850E-03  0.3127657E+01  0.4132713E+03  0.1575866E+01  0.5857674E-12  0.1975497E+01
  0.1880000E+01  0.1606629E+04 -0.1565282E+01  0.1106462E-02 -0.1880860E-01  0.2778171E+04 -0.1882080E-01  0.8651963E-04  0.3137938E+01  0.4242108E+03  0.1576310E+01  0.2421821E-12  0.2433030E+01
  0.1920000E+01  0.1650445E+04 -0.1564799E+01  0.1202876E-03  0.3066739E+01  0.2739681E+04 -0.2004962E-01  0.3053688E-03 -0.8000659E-02  0.4353038E+03  0.1576793E+01  0.1246220E-12 -0.2708548E+01
  0.1960000E+01  0.1694999E+04 -0.1564274E+01  0.4574098E-03 -0.3113411E+01  0.2700668E+04 -0.2134516E-01  0.3028434E-03  0.2408127E-01  0.4465523E+03  0.1577318E+01  0.7847652E-12 -0.2100858E+01
  0.2000000E+01  0.1740333E+04 -0.1563704E+01  0.2860056E-03  0.1663692E+00  0.2661345E+04 -0.2270994E-01  0.3894278E-03  0.3131196E+01  0.4579650E+03  0.1577888E+01  0.3874453E-12 -0.1538697E+01
  0.2040000E+01  0.1786432E+04 -0.1563085E+01  0.1762825E-03  0.5718756E+00  0.2621612E+04 -0.2415059E-01  0.4652160E-03  0.3098549E+01  0.4695390E+03  0.1578507E+01  0.1196936E-11 -0.1853434E+01
  0.2080000E+01  0.1833370E+04 -0.1562413E+01  0.1211305E-02  0.5174997E-01  0.2581782E+04 -0.2567109E-01  0.7807279E-03  0.3135494E+01  0.4812894E+03  0.1579180E+01  0.8586664E-12  0.7239209E+00
  0.2120000E+01  0.1881116E+04 -0.1561684E+01  0.1473140E-02 -0.5605889E-02  0.2541486E+04 -0.2727079E-01  0.1374133E-03 -0.3075065E+01  0.4932090E+03  0.1579908E+01  0.1295091E-11 -0.2273740E+01
  0.2160000E+01  0.1929703E+04 -0.1560894E+01  0.2787255E-02 -0.3135476E+01  0.2500884E+04 -0.2895077E-01  0.8380817E-03  0.8741819E-02  0.5053050E+03  0.1580698E+01  0.6586150E-12 -0.9036878E+00
  0.2200000E+01  0.1979133E+04 -0.1560038E+01  0.5441785E-03  0.1277141E+00  0.2460301E+04 -0.3071891E-01  0.4414806E-03  0.3030514E-01  0.5175735E+03  0.1581554E+01  0.6589205E-12 -0.3969271E+00
  0.2240000E+01  0.2029434E+04 -0.1559111E+01  0.1186521E-02  0.3081676E+01  0.2419353E+04 -0.3257899E-01  0.5755504E-04 -0.2990686E+01  0.5300203E+03  0.1582481E+01  0.6344526E-12  0.1121774E+01
  0.2280000E+01  0.2080643E+04 -0.1558107E+01  0.1228340E-02  0.3118623E+01  0.2378307E+04 -0.3452785E-01  0.3860338E-04  0.1225655E+00  0.5426497E+03  0.1583486E+01  0.9435975E-12 -0.2280913E+01
  0.2320000E+01  0.2132715E+04 -0.1557020E+01  0.3015848E-03  0.9799057E-01  0.2337201E+04 -0.3656658E-01  0.9666370E-03 -0.3136976E+01  0.5554499E+03  0.1584572E+01  0.3464159E-12 -0.3129286E+01
  0.2360000E+01  0.2185713E+04 -0.1555847E+01  0.1863925E-02  0.2039988E-01  0.2296007E+04 -0.3870605E-01  0.7334100E-03  0.2371906E-01  0.5684365E+03  0.1585745E+01  0.5736608E-12  0.1169450E+01
  0.2400000E+01  0.2239566E+04 -0.1554582E+01  0.2026711E-02  0.8258294E-02  0.2254814E+04 -0.4094747E-01  0.1011009E-02  0.1860034E-01  0.5815880E+03  0.1587010E+01  0.6341152E-12  0.6526895E+00
  0.2440000E+01  0.2294272E+04 -0.1553221E+01  0.1330209E-02  0.3127863E+01  0.2213561E+04 -0.4328562E-01  0.4525776E-04  0.3080739E+01  0.5949039E+03  0.1588372E+01  0.1010648E-11  0.2980744E+01
  0.2480000E+01  0.2349867E+04 -0.1551757E+01  0.8763911E-04  0.2232096E+01  0.2172417E+04 -0.4571822E-01  0.1027551E-02 -0.1477655E-01  0.6083902E+03  0.1589836E+01  0.1111177E-11  0.1237924E+01
  0.2520000E+01  0.2406311E+04 -0.1550183E+01  0.1251992E-02  0.3126487E+01  0.2131398E+04 -0.4825689E-01  0.1281177E-02 -0.1178814E-03  0.6220324E+03  0.1591410E+01  0.1121351E-11  0.1757281E+01
  0.2560000E+01  0.2463576E+04 -0.1548494E+01  0.6728232E-03 -0.3123636E+01  0.2090512E+04 -0.5091352E-01  0.2330074E-03  0.5141829E-02  0.6358229E+03  0.1593099E+01  0.1128272E-11 -0.1633309E+01
  0.2600000E+01  0.2521657E+04 -0.1546682E+01  0.4520008E-03  0.7072725E-01  0.2049753E+04 -0.5367011E-01  0.5631112E-03  0.3115644E+01  0.6497546E+03  0.1594911E+01  0.6307349E-12  0.9897456E+00
  0.2640000E+01  0.2580534E+04 -0.1544742E+01  0.2911025E-03  0.1715130E+00  0.2009217E+04 -0.5652820E-01  0.8537394E-03  0.1036986E-01  0.6638201E+03  0.1596850E+01  0.3114067E-12 -0.1349726E+01
  0.2680000E+01  0.2640122E+04 -0.1542672E+01  0.1136546E-02 -0.3088568E+01  0.1968827E+04 -0.5949196E-01  0.6146599E-04 -0.2977322E+00  0.6779964E+03  0.1598921E+01  0.2032566E-11  0.1863154E+01
  0.2720000E+01  0.2700431E+04 -0.1540466E+01  0.1185213E-02  0.3102921E+01  0.1929126E+04 -0.6257083E-01  0.8609410E-03  0.2294316E-01  0.6922844E+03  0.1601127E+01  0.4181274E-12 -0.1932431E+01
  0.2760000E+01  0.2761353E+04 -0.1538120E+01  0.1461136E-02 -0.3101067E+01  0.1889304E+04 -0.6575061E-01  0.6301560E-04 -0.4004707E+00  0.7066548E+03  0.1603473E+01  0.1104719E-11  0.1332993E+01
  0.2800000E+01  0.2822921E+04 -0.1535628E+01  0.2176982E-02  0.3083905E+01  0.1849826E+04 -0.6902505E-01  0.4983729E-03 -0.3558620E-01  0.7211168E+03  0.1605965E+01  0.4462052E-12  0.2319591E+01
  0.2840000E+01  0.2884874E+04 -0.1532989E+01  0.1072744E-02 -0.2405545E-01  0.1810677E+04 -0.7238739E-01  0.9402962E-03 -0.3574855E-01  0.7355960E+03  0.1608604E+01  0.1356495E-11 -0.1731166E+01
  0.2880000E+01  0.2947339E+04 -0.1530192E+01  0.1267087E-03 -0.1280695E+01  0.1772056E+04 -0.7590882E-01  0.2260710E-03 -0.2898821E+01  0.7501255E+03  0.1611401E+01  0.1450660E-11 -0.1477795E+01
  0.2920000E+01  0.3010178E+04 -0.1527234E+01  0.7156683E-03 -0.3031701E+01  0.1733462E+04 -0.7953426E-01  0.1137486E-03  0.6141683E-01  0.7646672E+03  0.1614359E+01  0.1013543E-11  0.9664798E+00
  0.2960000E+01  0.3073354E+04 -0.1524112E+01  0.2102730E-02 -0.2437088E-01  0.1695291E+04 -0.8326164E-01  0.3698524E-03  0.1675346E-01  0.7792076E+03  0.1617482E+01  0.6434766E-12 -0.1458323E+00
  0.3000000E+01  0.3136827E+04 -0.1520819E+01  0.2102217E-03 -0.2942119E+01  0.1657862E+04 -0.8708907E-01  0.3856876E-03  0.3059261E+01  0.7937288E+03  0.1620775E+01  0.1744420E-11 -0.1564177E+01
  0.3040000E+01  0.3200443E+04 -0.1517361E+01  0.4266813E-02  0.3497285E-01  0.1620776E+04 -0.9103046E-01  0.3322342E-03 -0.1196291E+00  0.8082047E+03  0.1624233E+01  0.7453728E-12 -0.1219077E+01
  0.3080000E+01  0.3264108E+04 -0.1513736E+01  0.1903665E-02 -0.3070616E+01  0.1583975E+04 -0.9507810E-01  0.7245280E-04 -0.3017391E+01  0.8225992E+03  0.1627858E+01  0.1190862E-11 -0.1059928E+01
  0.3120000E+01  0.3327735E+04 -0.1509941E+01  0.1960067E-03 -0.3084109E+01  0.1547809E+04 -0.9922168E-01  0.2624491E-03 -0.7867174E-01  0.8368928E+03  0.1631653E+01  0.7998858E-13  0.1093641E+01
  0.3160000E+01  0.3391254E+04 -0.1505976E+01  0.9131387E-03  0.2931690E+01  0.1511903E+04 -0.1034547E+00  0.3264753E-03  0.3100376E+01  0.8510717E+03  0.1635618E+01  0.1149222E-11 -0.1774946E+01
  0.3200000E+01  0.3454620E+04 -0.1501832E+01  0.5140934E-04 -0.3295240E+00  0.1476592E+04 -0.1077639E+00  0.1339896E-03 -0.2975773E+01  0.8651145E+03  0.1639762E+01  0.6279655E-12  0.4494785E+00
  0.3240000E+01  0.3517556E+04 -0.1497513E+01  0.6334174E-04 -0.1164334E+01  0.1441464E+04 -0.1122660E+00  0.4087529E-03 -0.6377928E-01  0.8789534E+03  0.1644081E+01  0.1579642E-11 -0.1062235E+01
  0.3280000E+01  0.3580132E+04 -0.1493011E+01  0.7417501E-03 -0.2910808E+01  0.1406983E+04 -0.1168817E+00  0.3262562E-03  0.2903243E-01  0.8926055E+03  0.1648583E+01  0.6208218E-12 -0.6329030E+00
  0.3320000E+01  0.3642216E+04 -0.1488328E+01  0.2267378E-02 -0.3066290E+01  0.1373162E+04 -0.1216015E+00  0.2255062E-03  0.3119919E+01  0.9060339E+03  0.1653266E+01  0.1257090E-11  0.1041607E+01
  0.3360000E+01  0.3703726E+04 -0.1483468E+01  0.3034159E-02  0.3165931E-01  0.1339527E+04 -0.1264314E+00  0.3885635E-03 -0.3094620E+01  0.9192164E+03  0.1658127E+01  0.5633999E-12  0.2605801E+01
  0.3400000E+01  0.3764446E+04 -0.1478437E+01  0.7327087E-03  0.2867211E+01  0.1306451E+04 -0.1313747E+00  0.4210415E-03 -0.3571911E-01  0.9321015E+03  0.1663159E+01  0.1031273E-11 -0.1398908E+01
  0.3440000E+01  0.3824339E+04 -0.1473240E+01  0.1903311E-02  0.1349210E-01  0.1274066E+04 -0.1364358E+00  0.1112669E-03 -0.2557713E+01  0.9446837E+03  0.1668355E+01  0.6555535E-12 -0.1733664E+01
  0.3480000E+01  0.3883300E+04 -0.1467876E+01  0.4599743E-03  0.1989418E-01  0.1241942E+04 -0.1416001E+00  0.1503734E-03 -0.7508869E-01  0.9569309E+03  0.1673719E+01  0.4980806E-12  0.2458608E+01
  0.3520000E+01  0.3941130E+04 -0.1462354E+01  0.1880443E-02  0.3092615E+01  0.1210550E+04 -0.1468670E+00  0.5951873E-04  0.2562607E+01  0.9688008E+03  0.1679241E+01  0.3702550E-12  0.1982240E+01
  0.3560000E+01  0.3997824E+04 -0.1456674E+01  0.1370231E-03 -0.1692577E+01  0.1179533E+04 -0.1522303E+00  0.5128937E-03  0.8927326E-01  0.9802951E+03  0.1684922E+01  0.6624916E-13  0.1383076E+01
  0.3600000E+01  0.4053197E+04 -0.1450836E+01  0.1179039E-02 -0.3085917E+01  0.1149117E+04 -0.1576747E+00  0.1207065E-03 -0.3028534E+01  0.9913606E+03  0.1690759E+01  0.7385850E-12  0.1754371E+01
  0.3640000E+01  0.4107097E+04 -0.1444850E+01  0.1993243E-02  0.1174726E+00  0.1118870E+04 -0.1633628E+00  0.1952021E-03  0.2900454E+01  0.1001961E+04  0.1696746E+01  0.5374404E-12 -0.2139318E+01
  0.3680000E+01  0.4159539E+04 -0.1438701E+01  0.2186954E-02 -0.3083490E+01  0.1089513E+04 -0.1691596E+00  0.8806894E-03 -0.3139148E+01  0.1012113E+04  0.1702895E+01  0.1161099E-11  0.1366140E+01
  0.3720000E+01  0.4210326E+04 -0.1432415E+01  0.1735011E-02  0.3049506E+01  0.1060371E+04 -0.1750759E+00  0.1178105E-02  0.3104609E+01  0.1021756E+04  0.1709180E+01  0.1072672E-11  0.2100716E+01
  0.3760000E+01  0.4259353E+04 -0.1426003E+01  0.6748050E-03  0.1556230E+00  0.1031742E+04 -0.1811213E+00  0.1415062E-03  0.2444718E+01  0.1030870E+04  0.1715593E+01  0.1149944E-11 -0.1180026E+01
  0.3800000E+01  0.4306511E+04 -0.1419464E+01  0.2333971E-02 -0.5828414E-02  0.1003748E+04 -0.1872939E+00  0.1252216E-02  0.5547992E-01  0.1039426E+04  0.1722133E+01  0.2478202E-11  0.1860921E+01
  0.3840000E+01  0.4351727E+04 -0.1412823E+01  0.1738510E-03 -0.9684651E+00  0.9765818E+03 -0.1936084E+00  0.5963615E-03  0.2136402E-01  0.1047426E+04  0.1728775E+01  0.1698769E-11 -0.1983993E+01
  0.3880000E+01  0.4394858E+04 -0.1406082E+01  0.1823175E-04  0.2875924E+01  0.9495661E+03 -0.2000406E+00  0.3461009E-03 -0.3711196E-01  0.1054823E+04  0.1735515E+01  0.7204890E-12 -0.9858198E-01
  0.3920000E+01  0.4435806E+04 -0.1399258E+01  0.5107637E-03 -0.2769809E-02  0.9230541E+03 -0.2065967E+00  0.9077643E-04 -0.5101467E+00  0.1061605E+04  0.1742339E+01  0.1987973E-11  0.9288109E+00
  0.3960000E+01  0.4474486E+04 -0.1392360E+01  0.1874560E-02  0.3021419E+01  0.8971717E+03 -0.2132773E+00  0.7276610E-03  0.3783380E-01  0.1067754E+04  0.1749237E+01  0.2095042E-11  0.1256638E+01
  0.4000000E+01  0.4510726E+04 -0.1385408E+01  0.1545058E-03  0.2555041E+01  0.8717750E+03 -0.2200797E+00  0.1760914E-03 -0.4139979E+00  0.1073233E+04  0.1756189E+01  0.8714001E-12 -0.1672899E+01
  0.4040000E+01  0.4544655E+04 -0.1378397E+01  0.2181431E-02  0.3138399E+01  0.8469971E+03 -0.2269806E+00  0.1832376E-04 -0.2682079E+01  0.1078067E+04  0.1763200E+01  0.3842673E-12  0.1598536E+01
  0.4080000E+01  0.4575893E+04 -0.1371341E+01  0.1308815E-02 -0.3088584E+01  0.8219636E+03 -0.2341250E+00  0.2745630E-03  0.5264232E-01  0.1082200E+04  0.1770255E+01  0.2242598E-11 -0.1757032E+01
  0.4120000E+01  0.4604569E+04 -0.1364270E+01  0.6321635E-03 -0.3557604E+00  0.7985375E+03 -0.2413954E+00  0.6684324E-03 -0.3040288E+01  0.1085625E+04  0.1777326E+01  0.6398229E-12  0.9190549E+00
  0.4160000E+01  0.4630391E+04 -0.1357184E+01  0.1138041E-02  0.3000490E+01  0.7751571E+03 -0.2488083E+00  0.6605871E-03 -0.3008099E+01  0.1088322E+04  0.1784412E+01  0.1409568E-11 -0.2324573E+01
  0.4200000E+01  0.4653910E+04 -0.1350065E+01  0.5370255E-03  0.2734107E+01  0.7520102E+03 -0.2563442E+00  0.7930794E-04 -0.2963163E+01  0.1090409E+04  0.1791532E+01  0.1465377E-11  0.8853279E+00
  0.4240000E+01  0.4674100E+04 -0.1343055E+01  0.1347848E-02 -0.3119003E+01  0.7293785E+03 -0.2640517E+00  0.1731873E-03  0.2113234E+00  0.1091602E+04  0.1798542E+01  0.1581651E-11  0.1275458E+01
  0.4280000E+01  0.4691704E+04 -0.1336049E+01  0.1786057E-02 -0.2981633E+01  0.7076526E+03 -0.2719071E+00  0.6288574E-03  0.3067381E+01  0.1092144E+04  0.1805549E+01  0.2968791E-12  0.4038832E+00
  0.4320000E+01  0.4706454E+04 -0.1329121E+01  0.2001620E-02 -0.3041134E+01  0.6863014E+03 -0.2799149E+00  0.2943562E-03  0.2909857E+01  0.1091964E+04  0.1812477E+01  0.1603269E-11  0.1770399E+01
  0.4360000E+01  0.4718530E+04 -0.1322235E+01  0.2276796E-02 -0.1076227E-01  0.6650970E+03 -0.2880481E+00  0.6036645E-03 -0.8760855E-01  0.1091098E+04  0.1819363E+01  0.1303830E-11 -0.1112389E+00
  0.4400000E+01  0.4728144E+04 -0.1315294E+01  0.2637723E-02 -0.3015964E+01  0.6445051E+03 -0.2963077E+00  0.2867857E-03 -0.2932609E+01  0.1089653E+04  0.1826303E+01  0.9129302E-12  0.1906769E+01
  0.4440000E+01  0.4733803E+04 -0.1308803E+01  0.1347198E-02 -0.2945897E+01  0.6249522E+03 -0.3047658E+00  0.1957634E-03 -0.1754387E+00  0.1087178E+04  0.1832794E+01  0.2048847E-11  0.1266706E+01
  0.4480000E+01  0.4737206E+04 -0.1302286E+01  0.2664680E-03 -0.2994794E+01  0.6051177E+03 -0.3133518E+00  0.2210590E-03  0.2980294E+01  0.1084171E+04  0.1839311E+01  0.1066896E-11  0.1673573E+01
  0.4520000E+01  0.4737744E+04 -0.1295906E+01  0.1319179E-02 -0.3073590E+01  0.5860072E+03 -0.3220754E+00  0.3938622E-03  0.1283881E+00  0.1080477E+04  0.1845691E+01  0.1368473E-11  0.1296779E+01
  0.4560000E+01  0.4735465E+04 -0.1289690E+01  0.1159138E-02 -0.9300285E-01  0.5675319E+03 -0.3309746E+00  0.3058503E-03 -0.3132529E+01  0.1076101E+04  0.1851908E+01  0.6275329E-12 -0.2824475E+01
  0.4600000E+01  0.4730545E+04 -0.1283644E+01  0.5390845E-03  0.2778185E+01  0.5496028E+03 -0.3400296E+00  0.3835682E-03  0.2832706E+01  0.1071091E+04  0.1857954E+01  0.2376837E-12 -0.1773044E+00
  0.4640000E+01  0.4722576E+04 -0.1277812E+01  0.2155992E-02  0.3289914E-03  0.5314919E+03 -0.3492520E+00  0.5596424E-04  0.5955173E+00  0.1065371E+04  0.1863785E+01  0.1341770E-11  0.1299293E+01
  0.4680000E+01  0.4712138E+04 -0.1272176E+01  0.4424289E-03 -0.2823381E+01  0.5145231E+03 -0.3586090E+00  0.5664648E-04 -0.1817721E+01  0.1059071E+04  0.1869420E+01  0.1294860E-11  0.1489947E+01
  0.4720000E+01  0.4699192E+04 -0.1266769E+01  0.2125368E-02  0.4621452E-01  0.4972738E+03 -0.3681138E+00  0.1443167E-03 -0.1998557E+01  0.1052192E+04  0.1874828E+01  0.6832722E-12 -0.1370525E+01
  0.4760000E+01  0.4683596E+04 -0.1261607E+01  0.1532270E-02  0.2462141E+00  0.4810415E+03 -0.3777820E+00  0.5392270E-04  0.2476133E+01  0.1044703E+04  0.1879990E+01  0.5162342E-12  0.2932512E+01
  0.4800000E+01  0.4665602E+04 -0.1256698E+01  0.7268848E-03 -0.2787305E+01  0.4651417E+03 -0.3876177E+00  0.2597555E-03 -0.2568548E-02  0.1036674E+04  0.1884899E+01  0.6343534E-12 -0.2386296E+01
  0.4840000E+01  0.4645412E+04 -0.1252055E+01  0.2818706E-02 -0.3137129E+01  0.4497169E+03 -0.3976016E+00  0.2346250E-03  0.1234788E+00  0.1028162E+04  0.1889542E+01  0.4281987E-12 -0.2674059E+01
  0.4880000E+01  0.4622752E+04 -0.1247705E+01  0.7995435E-03 -0.1111661E+00  0.4347133E+03 -0.4077545E+00  0.2889789E-03 -0.1303016E+00  0.1019105E+04  0.1893892E+01  0.3747572E-11  0.1805856E+01
  0.4920000E+01  0.4598077E+04 -0.1243636E+01  0.3058130E-02  0.5304345E-01  0.4202005E+03 -0.4180402E+00  0.4917840E-04  0.1382693E+00  0.1009612E+04  0.1897961E+01  0.4972196E-12  0.9658818E+00
  0.4960000E+01  0.4571334E+04 -0.1239877E+01  0.3931235E-03  0.2801927E+01  0.4059544E+03 -0.4284763E+00  0.6886540E-04 -0.8706127E+00  0.9996769E+03  0.1901720E+01  0.1562997E-11 -0.2190410E+01
  0.5000000E+01  0.4542423E+04 -0.1236444E+01  0.1681980E-03  0.9670346E+00  0.3917881E+03 -0.4391636E+00  0.2223197E-03  0.9236962E-01  0.9893028E+03  0.1905154E+01  0.6145204E-12 -0.1212702E+01
  0.5040000E+01  0.4512253E+04 -0.1233303E+01  0.1514078E-03 -0.1927354E+01  0.3786390E+03 -0.4499265E+00  0.1215260E-03 -0.5854635E+00  0.9786593E+03  0.1908296E+01  0.1804799E-11  0.2221886E+01
  0.5080000E+01  0.4480092E+04 -0.1230505E+01  0.2237847E-02  0.2933207E+01  0.3656073E+03 -0.4608654E+00  0.1252255E-03 -0.2543278E+01  0.9676174E+03  0.1911094E+01  0.1271024E-11  0.2598292E+01
  0.5120000E+01  0.4445890E+04 -0.1228074E+01  0.1025349E-02  0.2775354E+01  0.3525001E+03 -0.4720287E+00  0.3133425E-03  0.2952216E+01  0.9561712E+03  0.1913525E+01  0.2243114E-11 -0.2278887E+01
  0.5160000E+01  0.4410652E+04 -0.1225952E+01  0.1138498E-03  0.2428169E+00  0.3401047E+03 -0.4832726E+00  0.7398948E-04  0.1423605E+01  0.9445281E+03  0.1915648E+01  0.8769008E-12  0.2442437E+01
  0.5200000E+01  0.4373619E+04 -0.1224208E+01  0.8157347E-03  0.2998841E+01  0.3282094E+03 -0.4947254E+00  0.3932959E-03 -0.3066183E+01  0.9325468E+03  0.1917392E+01  0.1058924E-11  0.1987126E+01
  0.5240000E+01  0.4335644E+04 -0.1222794E+01  0.2293925E-03  0.3112173E+01  0.3163851E+03 -0.5062616E+00  0.3992148E-03 -0.2927578E+01  0.9203993E+03  0.1918804E+01  0.5123707E-12  0.1686217E+01
  0.5280000E+01  0.4296370E+04 -0.1221758E+01  0.1639038E-02  0.2901282E+01  0.3048095E+03 -0.5179733E+00  0.5343943E-03 -0.3074302E+01  0.9080250E+03  0.1919842E+01  0.1210458E-11  0.3038686E+01
  0.5320000E+01  0.4255773E+04 -0.1221095E+01  0.3510721E-03 -0.1634378E+01  0.2943048E+03 -0.5298713E+00  0.2309719E-03 -0.2737720E+01  0.8954220E+03  0.1920504E+01  0.3492400E-11  0.1647005E+01
  0.5360000E+01  0.4214368E+04 -0.1220783E+01  0.4183264E-03 -0.3047580E+01  0.2835048E+03 -0.5418888E+00  0.3371528E-03  0.2822248E+01  0.8826906E+03  0.1920815E+01  0.1207158E-11  0.2785042E+01
  0.5400000E+01  0.4171731E+04 -0.1220864E+01  0.2904445E-03 -0.5371996E+00  0.2729374E+03 -0.5541350E+00  0.1553646E-03  0.2672907E+01  0.8697734E+03  0.1920736E+01  0.1617253E-11 -0.1408034E+01
  0.5440000E+01  0.4129104E+04 -0.1221269E+01  0.2828961E-03 -0.3590373E+00  0.2628144E+03 -0.5663750E+00  0.8859907E-04 -0.3089395E+01  0.8569041E+03  0.1920332E+01  0.1778484E-11  0.1493918E+01
  0.5480000E+01  0.4084751E+04 -0.1222108E+01  0.8808029E-03 -0.2783537E+01  0.2537787E+03 -0.5789658E+00  0.3251117E-03  0.2787418E+01  0.8437472E+03  0.1919492E+01  0.1289563E-11  0.1748399E+01
  0.5520000E+01  0.4040644E+04 -0.1223267E+01  0.5611882E-03 -0.2074227E+00  0.2442734E+03 -0.5915156E+00  0.1356702E-03  0.1566591E+01  0.8306864E+03  0.1918333E+01  0.6570786E-12 -0.1101793E+01
  0.5560000E+01  0.3995553E+04 -0.1224823E+01  0.8567603E-03 -0.3306329E+00  0.2350531E+03 -0.6043102E+00  0.2527040E-03  0.2895009E+01  0.8175040E+03  0.1916776E+01  0.3710764E-12  0.2974806E+01
  0.5600000E+01  0.3950172E+04 -0.1226743E+01  0.8830045E-03 -0.2998493E+01  0.2261878E+03 -0.6173057E+00  0.4773203E-03 -0.3134025E+01  0.8043301E+03  0.1914860E+01  0.2250708E-11  0.1305775E+01
  0.5640000E+01  0.3904566E+04 -0.1229013E+01  0.1693800E-02 -0.1018528E+00  0.2175602E+03 -0.6304235E+00  0.2475901E-03  0.3358264E+00  0.7911920E+03  0.1912591E+01  0.1467548E-11 -0.1780831E+01
  0.5680000E+01  0.3858111E+04 -0.1231707E+01  0.5947248E-03  0.1002130E+01  0.2094263E+03 -0.6438339E+00  0.9525445E-04 -0.8959526E+00  0.7779401E+03  0.1909899E+01  0.1790073E-11  0.1197935E+01
  0.5720000E+01  0.3811819E+04 -0.1234729E+01  0.2218016E-03  0.9306795E+00  0.2007957E+03 -0.6572742E+00  0.2650539E-03 -0.2942698E+01  0.7648061E+03  0.1906879E+01  0.1005358E-11  0.1892339E+01
  0.5760000E+01  0.3765050E+04 -0.1238148E+01  0.1147940E-02  0.2836216E+01  0.1936898E+03 -0.6709455E+00  0.3366010E-03  0.1209745E+00  0.7516416E+03  0.1903462E+01  0.9237200E-12 -0.2903349E+01
  0.5800000E+01  0.3718108E+04 -0.1241912E+01  0.3560320E-03 -0.1258893E+01  0.1865730E+03 -0.6847792E+00  0.3613150E-03 -0.3120020E+01  0.7385314E+03  0.1899698E+01  0.6803675E-12 -0.1126941E+01
  0.5840000E+01  0.3671428E+04 -0.1246048E+01  0.5078139E-03 -0.2876537E+01  0.1790503E+03 -0.6986727E+00  0.1186129E-03 -0.3118664E+01  0.7255379E+03  0.1895562E+01  0.1036948E-11  0.1894781E+01
  0.5880000E+01  0.3624653E+04 -0.1250533E+01  0.1262870E-02 -0.4116751E+00  0.1720780E+03 -0.7127206E+00  0.1030092E-03 -0.1212846E+00  0.7126107E+03  0.1891076E+01  0.2985711E-12 -0.3051574E+01
  0.5920000E+01  0.3577922E+04 -0.1255375E+01  0.4557106E-03  0.3259072E+00  0.1651661E+03 -0.7269153E+00  0.1400893E-03  0.3073850E+01  0.6997761E+03  0.1886236E+01  0.1072146E-11  0.2186300E+01
  0.5960000E+01  0.3531246E+04 -0.1260571E+01  0.1368090E-02 -0.3070296E+01  0.1588053E+03 -0.7412731E+00  0.1421835E-03  0.2874241E+01  0.6870316E+03  0.1881041E+01  0.1537437E-11  0.1109383E+01
  0.6000000E+01  0.3484596E+04 -0.1266124E+01  0.5583537E-03 -0.7011592E-01  0.1527499E+03 -0.7558306E+00  0.9385245E-04 -0.3117768E+01  0.6743697E+03  0.1875484E+01  0.3179567E-11 -0.1398713E+01
  0.6039999E+01  0.3438434E+04 -0.1271997E+01  0.4357118E-03 -0.4574695E-01  0.1463380E+03 -0.7703938E+00  0.7427526E-04 -0.1716256E+01  0.6618862E+03  0.1869610E+01  0.2028304E-11  0.1791569E+01