VARIABLES="w (rad/s)"  
"abs(F   1   1)" "angle(F   1   1)"
"abs(F   1   2)" "angle(F   1   2)"
"abs(F   1   3)" "angle(F   1   3)"
"abs(F   1   4)" "angle(F   1   4)"
"abs(F   1   5)" "angle(F   1   5)"
"abs(F   1   6)" "angle(F   1   6)"
Zone t="Excitation force - beta =   0.000 deg",I=    50,F=POINT
  0.1000000E+00  0.1360899E+05 -0.1570795E+01  0.1594088E-01  0.1740928E-02  0.7512124E+06 -0.4015042E-04  0.1218185E+01 -0.2098067E-04  0.4214970E+05 -0.1570790E+01  0.2486769E-03 -0.2946303E+01
  0.1387755E+00  0.2611272E+05 -0.1570799E+01  0.6036231E-01 -0.4151356E-02  0.7415748E+06 -0.1470490E-03  0.1080735E+01 -0.7540075E-03  0.8100102E+05 -0.1570798E+01  0.1472299E-02 -0.3030699E+01
  0.1775510E+00  0.4253735E+05 -0.1570785E+01  0.3996100E-01 -0.6822266E-02  0.7289433E+06 -0.3875172E-03  0.2490834E+00 -0.1679144E-02  0.1322211E+06 -0.1570780E+01  0.1975158E-02 -0.2996764E+01
  0.2163265E+00  0.6276910E+05 -0.1570761E+01  0.9056365E-01 -0.3138502E+01  0.7134502E+06 -0.8366758E-03  0.8581778E-01  0.3134806E+01  0.1956064E+06 -0.1570761E+01  0.7211366E-03  0.1104474E+00
  0.2551020E+00  0.8667403E+05 -0.1570701E+01  0.1210130E+00  0.8556037E-02  0.6952748E+06 -0.1579434E-02  0.2157916E+01 -0.3230622E-02  0.2709305E+06 -0.1570702E+01  0.6807862E-03  0.2364483E+01
  0.2938775E+00  0.1140958E+06 -0.1570577E+01  0.8900532E-01 -0.2206693E-01  0.6746284E+06 -0.2706104E-02  0.6393657E+00 -0.3112889E+01  0.3579225E+06 -0.1570578E+01  0.1603049E-02 -0.3971223E+00
  0.3326530E+00  0.1448660E+06 -0.1570345E+01  0.3307537E-01  0.1936377E+00  0.6517622E+06 -0.4308286E-02  0.5687493E-01  0.1476800E+00  0.4563095E+06 -0.1570347E+01  0.1716758E-02 -0.1968441E+00
  0.3714286E+00  0.1788012E+06 -0.1569945E+01  0.3054648E-01  0.8105848E-01  0.6269495E+06 -0.6475448E-02  0.1260522E+01 -0.3136186E+01  0.5657974E+06 -0.1569945E+01  0.1077702E-02  0.1103530E+01
  0.4102041E+00  0.2157105E+06 -0.1569292E+01  0.1184874E-01  0.2970406E+01  0.6004849E+06 -0.9292278E-02  0.9395105E+00 -0.3127244E+01  0.6860944E+06 -0.1569292E+01  0.2575990E-02  0.2611378E+01
  0.4489796E+00  0.2553942E+06 -0.1568283E+01  0.1582413E+00  0.3071841E+01  0.5726751E+06 -0.1283736E-01  0.2684575E+00  0.3035670E+01  0.8169053E+06 -0.1568283E+01  0.1328015E-02  0.1936236E+01
  0.4877551E+00  0.2976428E+06 -0.1566792E+01  0.8866490E-01  0.3121644E-01  0.5438164E+06 -0.1718262E-01  0.3488981E-01  0.2402171E+01  0.9579082E+06 -0.1566792E+01  0.1219134E-02  0.5374340E+00
  0.5265306E+00  0.3422421E+06 -0.1564667E+01  0.4092079E-02  0.2173221E+01  0.5142149E+06 -0.2239434E-01  0.1336399E+01  0.3111172E+01  0.1108804E+07 -0.1564667E+01  0.3137719E-02  0.2549527E+01
  0.5653061E+00  0.3889563E+06 -0.1561735E+01  0.4063428E-02 -0.5278451E+00  0.4841836E+06 -0.2853545E-01  0.2143217E+01 -0.3132543E+01  0.1269241E+07 -0.1561735E+01  0.1501741E-02  0.2264866E+01
  0.6040816E+00  0.4375299E+06 -0.1557801E+01  0.5026865E-01  0.2615098E+01  0.4539729E+06 -0.3566505E-01  0.6551796E+00 -0.1571783E+00  0.1438758E+07 -0.1557802E+01  0.7132735E-03 -0.1415092E+01
  0.6428572E+00  0.4876852E+06 -0.1552655E+01  0.4619590E-01  0.4671032E+00  0.4238683E+06 -0.4384414E-01  0.5097578E-01 -0.1606896E+01  0.1616898E+07 -0.1552655E+01  0.1769837E-02 -0.1824139E+01
  0.6816327E+00  0.5390731E+06 -0.1546076E+01  0.3822635E-01 -0.2751989E+01  0.3940948E+06 -0.5313419E-01  0.1105193E+00 -0.2093576E+01  0.1802894E+07 -0.1546076E+01  0.2553283E-02  0.1722094E+01
  0.7204082E+00  0.5913172E+06 -0.1537838E+01  0.4982743E-01  0.1308608E+00  0.3648815E+06 -0.6360143E-01  0.2889431E+01  0.3105866E+01  0.1995912E+07 -0.1537838E+01  0.4154257E-02 -0.1417708E+01
  0.7591837E+00  0.6439205E+06 -0.1527728E+01  0.1313240E+00  0.2914363E+01  0.3364162E+06 -0.7531612E-01  0.7109863E+00  0.3107629E+01  0.2194621E+07 -0.1527728E+01  0.6462283E-03  0.2017031E+01
  0.7979592E+00  0.6963289E+06 -0.1515554E+01  0.9338695E-01  0.5001782E-01  0.3088928E+06 -0.8835499E-01  0.5158607E+00  0.1225934E+00  0.2397523E+07 -0.1515553E+01  0.1550101E-02 -0.1603025E+01
  0.8367347E+00  0.7478369E+06 -0.1501165E+01  0.3711734E-01 -0.2571240E+01  0.2824201E+06 -0.1027962E+00  0.1230000E+01  0.1311579E-01  0.2602364E+07 -0.1501165E+01  0.7998013E-03 -0.1753266E+00
  0.8755102E+00  0.7976350E+06 -0.1484476E+01  0.3541776E-01  0.1887681E+00  0.2571776E+06 -0.1187232E+00  0.7431719E+00 -0.2474362E+00  0.2806604E+07 -0.1484475E+01  0.6392729E-03 -0.1778386E+01
  0.9142857E+00  0.8447854E+06 -0.1465487E+01  0.5850175E-01  0.2453506E+01  0.2332006E+06 -0.1362264E+00  0.1708629E+01 -0.3234910E-01  0.3006926E+07 -0.1465487E+01  0.1134856E-02  0.2743965E+01
  0.9530612E+00  0.8882466E+06 -0.1444314E+01  0.2317683E-01  0.4823282E+00  0.2106059E+06 -0.1553836E+00  0.4714999E+00 -0.3064456E+01  0.3199545E+07 -0.1444314E+01  0.6253471E-03  0.9460202E+00
  0.9918368E+00  0.9269409E+06 -0.1421200E+01  0.7465148E-01 -0.1795892E+01  0.1894583E+06 -0.1762696E+00  0.1002954E+01  0.3034868E+01  0.3380342E+07 -0.1421200E+01  0.7905351E-02 -0.1687463E+01
  0.1030612E+01  0.9597557E+06 -0.1396538E+01  0.6501769E-01  0.2664239E+01  0.1697195E+06 -0.1989969E+00  0.7569464E+00 -0.3075321E+01  0.3544681E+07 -0.1396538E+01  0.3990980E-02  0.1117897E+01
  0.1069388E+01  0.9857171E+06 -0.1370867E+01  0.6281209E-01  0.1269095E+01  0.1514579E+06 -0.2235940E+00  0.5653604E+00 -0.1697181E-01  0.3688308E+07 -0.1370867E+01  0.3488520E-02 -0.1120938E+01
  0.1108163E+01  0.1004051E+07 -0.1344860E+01  0.9318853E-02 -0.4670810E+00  0.1346632E+06 -0.2501042E+00  0.3726948E+00  0.3369003E+00  0.3807415E+07 -0.1344861E+01  0.2262644E-02  0.3482019E+00
  0.1146939E+01  0.1014245E+07 -0.1319289E+01  0.2134635E-01  0.2358570E+01  0.1192446E+06 -0.2786908E+00  0.1738165E+00 -0.3045285E+01  0.3898836E+07 -0.1319291E+01  0.2292337E-02  0.1502222E+01
  0.1185714E+01  0.1016167E+07 -0.1294983E+01  0.7614969E-01 -0.3108089E-01  0.1052078E+06 -0.3092991E+00  0.2526139E+00 -0.2602662E+01  0.3960844E+07 -0.1294985E+01  0.2802382E-02  0.2270893E+01
  0.1224490E+01  0.1010050E+07 -0.1272770E+01  0.1191410E+00 -0.1457399E+01  0.9249970E+05 -0.3419208E+00  0.1680898E+00  0.2909632E+01  0.3992991E+07 -0.1272772E+01  0.2740246E-02 -0.4026237E+00
  0.1263265E+01  0.9965007E+06 -0.1253423E+01  0.7259483E-01 -0.1108419E+01  0.8103047E+05 -0.3766742E+00  0.2064371E+00 -0.6130422E+00  0.3996190E+07 -0.1253427E+01  0.4583660E-02  0.2522498E+01
  0.1302041E+01  0.9763621E+06 -0.1237618E+01  0.3972229E-01 -0.2270912E+01  0.7072340E+05 -0.4136299E+00  0.8021302E+00 -0.1301695E-01  0.3972459E+07 -0.1237624E+01  0.3535318E-02 -0.5574995E+00
  0.1340816E+01  0.9506920E+06 -0.1225905E+01  0.4983306E-01  0.1912622E+01  0.6152092E+05 -0.4526211E+00  0.2878549E+00 -0.2154948E+01  0.3924845E+07 -0.1225911E+01  0.7098878E-02  0.5709980E+00
  0.1379592E+01  0.9206239E+06 -0.1218685E+01  0.1080813E+00  0.1600091E+01  0.5333980E+05 -0.4936151E+00  0.5420498E+00 -0.9056158E-01  0.3856928E+07 -0.1218692E+01  0.2915560E-02 -0.1641563E+01
  0.1418367E+01  0.8872802E+06 -0.1216221E+01  0.1895799E-01 -0.2380526E+01  0.4608418E+05 -0.5368304E+00  0.1241806E+00  0.2862988E+01  0.3772391E+07 -0.1216232E+01  0.4178470E-02 -0.1768005E+00
  0.1457143E+01  0.8516873E+06 -0.1218651E+01  0.2632415E-01 -0.2521056E+01  0.3967877E+05 -0.5822338E+00  0.4217999E+00  0.3066919E+01  0.3674849E+07 -0.1218665E+01  0.2329291E-02  0.1191958E+01
  0.1495918E+01  0.8147704E+06 -0.1226006E+01  0.4052534E-01  0.1796386E+00  0.3405189E+05 -0.6295764E+00  0.1963169E+00  0.1420206E+01  0.3567730E+07 -0.1226022E+01  0.2671066E-02 -0.2017781E+01
  0.1534694E+01  0.7772960E+06 -0.1238234E+01  0.5068368E-01  0.1816824E+01  0.2912576E+05 -0.6788365E+00  0.3772702E+00  0.2900088E+01  0.3454010E+07 -0.1238250E+01  0.1459266E-02  0.1108217E+01
  0.1573469E+01  0.7399051E+06 -0.1255214E+01  0.1129434E+00 -0.1201768E+01  0.2482543E+05 -0.7300585E+00  0.9235019E+00 -0.2903830E+01  0.3336231E+07 -0.1255233E+01  0.8004752E-02  0.1366653E+01
  0.1612245E+01  0.7030679E+06 -0.1276793E+01  0.3503168E-02  0.2832506E+01  0.2108290E+05 -0.7835145E+00  0.1100487E+01 -0.2882867E+01  0.3216398E+07 -0.1276818E+01  0.2050385E-02  0.2033493E+01
  0.1651020E+01  0.6671565E+06 -0.1302793E+01  0.1126403E+00  0.1458464E+01  0.1783964E+05 -0.8387083E+00  0.4017246E+00  0.1412687E+00  0.3096221E+07 -0.1302818E+01  0.4168394E-02  0.2374579E+01
  0.1689796E+01  0.6324364E+06 -0.1333016E+01  0.2942326E-01  0.7347004E+00  0.1503609E+05 -0.8955652E+00  0.2572047E+00 -0.1888728E+01  0.2977000E+07 -0.1333040E+01  0.2878471E-02  0.1408444E+00
  0.1728571E+01  0.5990856E+06 -0.1367265E+01  0.1024653E-01  0.1537444E+01  0.1261781E+05 -0.9541822E+00  0.3101617E+00 -0.1289789E+01  0.2859733E+07 -0.1367286E+01  0.5181011E-02 -0.1480891E+01
  0.1767347E+01  0.5672171E+06 -0.1405341E+01  0.3739355E-01  0.1533002E+01  0.1053573E+05 -0.1014533E+01  0.2384080E+00  0.1460124E+01  0.2745136E+07 -0.1405360E+01  0.2349140E-02 -0.1455472E+01
  0.1806122E+01  0.5368828E+06 -0.1447061E+01  0.1960995E-01 -0.1546410E+01  0.8745983E+04 -0.1076277E+01  0.6114010E+00  0.1639467E+01  0.2633699E+07 -0.1447078E+01  0.7430534E-02 -0.1663021E+01
  0.1844898E+01  0.5081059E+06 -0.1492245E+01  0.2654472E-01 -0.3655538E+00  0.7207706E+04 -0.1139051E+01  0.2704140E+00  0.2981922E+01  0.2525804E+07 -0.1492256E+01  0.4124278E-02 -0.1537493E+01
  0.1883674E+01  0.4808736E+06 -0.1540728E+01  0.4499460E-01  0.1974077E+01  0.5883359E+04 -0.1202885E+01  0.2761075E+00  0.1852419E+01  0.2421666E+07 -0.1540728E+01  0.6356527E-02 -0.1619384E+01
  0.1922449E+01  0.4551541E+06 -0.1592352E+01  0.1770926E-01 -0.2895040E+01  0.4737741E+04 -0.1267704E+01  0.1922292E+00  0.3234755E+00  0.2321418E+07 -0.1592337E+01  0.7088283E-02  0.1450997E+01
  0.1961224E+01  0.4308956E+06 -0.1646970E+01  0.1448349E-01 -0.1416533E+01  0.3734293E+04 -0.1333076E+01  0.3526736E+00 -0.4125483E+00  0.2225082E+07 -0.1646939E+01  0.5382164E-02  0.1435843E+01
  0.2000000E+01  0.4080401E+06 -0.1704440E+01  0.3373132E-01 -0.1726128E+01  0.2826983E+04 -0.1396430E+01  0.5403987E-01 -0.1520762E+01  0.2132653E+07 -0.1704402E+01  0.2227574E-02 -0.1405648E+01
Zone t="Excitation force - beta =  51.429 deg",I=    50,F=POINT
  0.1000000E+00  0.8485069E+04 -0.1570811E+01  0.1063994E+05 -0.1570787E+01  0.7512123E+06 -0.4015027E-04  0.3295395E+05  0.1570764E+01  0.2627989E+05 -0.1570794E+01  0.4918692E-03  0.3058903E+01
  0.1387755E+00  0.1628101E+05 -0.1570794E+01  0.2041575E+05 -0.1570790E+01  0.7415748E+06 -0.1470489E-03  0.6332917E+05  0.1570820E+01  0.5050329E+05 -0.1570794E+01  0.1750696E-02  0.3014215E+01
  0.1775510E+00  0.2652161E+05 -0.1570786E+01  0.3325705E+05 -0.1570784E+01  0.7289434E+06 -0.3875172E-03  0.1033745E+06  0.1570807E+01  0.8243845E+05 -0.1570790E+01  0.1270208E-01 -0.3141297E+01
  0.2163265E+00  0.3913590E+05 -0.1570761E+01  0.4907484E+05 -0.1570762E+01  0.7134504E+06 -0.8366788E-03  0.1529312E+06  0.1570840E+01  0.1219585E+06 -0.1570761E+01  0.5979836E-03 -0.2104835E+01
  0.2551020E+00  0.5404039E+05 -0.1570701E+01  0.6776448E+05 -0.1570700E+01  0.6952750E+06 -0.1579433E-02  0.2118219E+06  0.1570884E+01  0.1689223E+06 -0.1570702E+01  0.5494149E-02 -0.4781293E-01
  0.2938775E+00  0.7113757E+05 -0.1570577E+01  0.8920367E+05 -0.1570577E+01  0.6746285E+06 -0.2706104E-02  0.2798349E+06  0.1571015E+01  0.2231611E+06 -0.1570577E+01  0.5283816E-02 -0.3036660E+01
  0.3326530E+00  0.9032249E+05 -0.1570346E+01  0.1132608E+06 -0.1570346E+01  0.6517622E+06 -0.4308298E-02  0.3567570E+06  0.1571248E+01  0.2845042E+06 -0.1570348E+01  0.1539739E-02  0.5380089E+00
  0.3714286E+00  0.1114808E+06 -0.1569945E+01  0.1397925E+06 -0.1569944E+01  0.6269495E+06 -0.6475447E-02  0.4423584E+06  0.1571648E+01  0.3527690E+06 -0.1569945E+01  0.8213108E-02  0.6529090E-02
  0.4102041E+00  0.1344933E+06 -0.1569292E+01  0.1686492E+06 -0.1569291E+01  0.6004849E+06 -0.9292279E-02  0.5364101E+06  0.1572302E+01  0.4277726E+06 -0.1569293E+01  0.1269363E-01  0.4685909E-01
  0.4489796E+00  0.1592358E+06 -0.1568283E+01  0.1996752E+06 -0.1568283E+01  0.5726751E+06 -0.1283734E-01  0.6386818E+06  0.1573312E+01  0.5093318E+06 -0.1568284E+01  0.2498116E-02  0.2405840E+01
  0.4877551E+00  0.1855772E+06 -0.1566792E+01  0.2327065E+06 -0.1566792E+01  0.5438166E+06 -0.1718262E-01  0.7489222E+06  0.1574801E+01  0.5972458E+06 -0.1566792E+01  0.4138737E-02  0.3983509E+00
  0.5265306E+00  0.2133843E+06 -0.1564667E+01  0.2675753E+06 -0.1564667E+01  0.5142149E+06 -0.2239434E-01  0.8668976E+06  0.1576927E+01  0.6913272E+06 -0.1564667E+01  0.1209914E-01 -0.1792223E+00
  0.5653061E+00  0.2425104E+06 -0.1561735E+01  0.3040984E+06 -0.1561735E+01  0.4841836E+06 -0.2853549E-01  0.9923325E+06  0.1579858E+01  0.7913590E+06 -0.1561735E+01  0.9042660E-02 -0.3889707E+00
  0.6040816E+00  0.2727955E+06 -0.1557801E+01  0.3420747E+06 -0.1557801E+01  0.4539727E+06 -0.3566507E-01  0.1124866E+07  0.1583792E+01  0.8970509E+06 -0.1557801E+01  0.3753269E-02  0.1711041E+01
  0.6428572E+00  0.3040668E+06 -0.1552655E+01  0.3812877E+06 -0.1552656E+01  0.4238684E+06 -0.4384415E-01  0.1264142E+07  0.1588938E+01  0.1008119E+07 -0.1552655E+01  0.1196622E-01 -0.2099356E+00
  0.6816327E+00  0.3361066E+06 -0.1546076E+01  0.4214643E+06 -0.1546076E+01  0.3940947E+06 -0.5313420E-01  0.1409559E+07  0.1595517E+01  0.1124086E+07 -0.1546076E+01  0.1091608E-01 -0.3104739E+01
  0.7204082E+00  0.3686803E+06 -0.1537839E+01  0.4623105E+06 -0.1537838E+01  0.3648817E+06 -0.6360146E-01  0.1560468E+07  0.1603753E+01  0.1244431E+07 -0.1537838E+01  0.4396934E-02 -0.2205770E+01
  0.7591837E+00  0.4014777E+06 -0.1527728E+01  0.5034372E+06 -0.1527728E+01  0.3364162E+06 -0.7531615E-01  0.1715824E+07  0.1613864E+01  0.1368324E+07 -0.1527728E+01  0.3637002E-02 -0.5322728E+00
  0.7979592E+00  0.4341540E+06 -0.1515553E+01  0.5444123E+06 -0.1515553E+01  0.3088929E+06 -0.8835503E-01  0.1874460E+07  0.1626039E+01  0.1494831E+07 -0.1515554E+01  0.1486419E-02 -0.6172624E+00
  0.8367347E+00  0.4662685E+06 -0.1501165E+01  0.5846825E+06 -0.1501164E+01  0.2824200E+06 -0.1027962E+00  0.2034610E+07  0.1640428E+01  0.1622548E+07 -0.1501165E+01  0.1177087E-01  0.3158107E+00
  0.8755102E+00  0.4973172E+06 -0.1484475E+01  0.6236163E+06 -0.1484476E+01  0.2571775E+06 -0.1187233E+00  0.2194291E+07  0.1657116E+01  0.1749889E+07 -0.1484476E+01  0.8053150E-02 -0.2084449E+01
  0.9142857E+00  0.5267151E+06 -0.1465487E+01  0.6604798E+06 -0.1465487E+01  0.2332005E+06 -0.1362266E+00  0.2350911E+07  0.1676105E+01  0.1874788E+07 -0.1465487E+01  0.7563806E-02  0.3237920E+00
  0.9530612E+00  0.5538127E+06 -0.1444314E+01  0.6944596E+06 -0.1444314E+01  0.2106059E+06 -0.1553837E+00  0.2501504E+07  0.1697278E+01  0.1994883E+07 -0.1444314E+01  0.3845323E-02  0.1776982E+01
  0.9918368E+00  0.5779381E+06 -0.1421200E+01  0.7247118E+06 -0.1421200E+01  0.1894582E+06 -0.1762698E+00  0.2642860E+07  0.1720393E+01  0.2107609E+07 -0.1421200E+01  0.8191303E-02 -0.8546173E-02
  0.1030612E+01  0.5983981E+06 -0.1396538E+01  0.7503674E+06 -0.1396538E+01  0.1697195E+06 -0.1989968E+00  0.2771345E+07  0.1745054E+01  0.2210072E+07 -0.1396538E+01  0.1259957E-01 -0.2460998E+01
  0.1069388E+01  0.6145845E+06 -0.1370867E+01  0.7706646E+06 -0.1370867E+01  0.1514578E+06 -0.2235940E+00  0.2883635E+07  0.1770725E+01  0.2299623E+07 -0.1370867E+01  0.4819424E-02 -0.4037905E+00
  0.1108163E+01  0.6260159E+06 -0.1344861E+01  0.7849991E+06 -0.1344860E+01  0.1346632E+06 -0.2501042E+00  0.2976757E+07  0.1796731E+01  0.2373884E+07 -0.1344861E+01  0.4332765E-02  0.1062231E+01
  0.1146939E+01  0.6323711E+06 -0.1319289E+01  0.7929686E+06 -0.1319289E+01  0.1192446E+06 -0.2786909E+00  0.3048231E+07  0.1822302E+01  0.2430883E+07 -0.1319290E+01  0.1292087E-01  0.2944151E+01
  0.1185714E+01  0.6335695E+06 -0.1294983E+01  0.7944711E+06 -0.1294983E+01  0.1052077E+06 -0.3092992E+00  0.3096714E+07  0.1846608E+01  0.2469547E+07 -0.1294985E+01  0.5707733E-02  0.3004594E+01
  0.1224490E+01  0.6297561E+06 -0.1272770E+01  0.7896892E+06 -0.1272770E+01  0.9249960E+05 -0.3419209E+00  0.3121845E+07  0.1868820E+01  0.2489589E+07 -0.1272772E+01  0.8291950E-02 -0.1000668E+01
  0.1263265E+01  0.6213081E+06 -0.1253422E+01  0.7790958E+06 -0.1253423E+01  0.8103047E+05 -0.3766742E+00  0.3124346E+07  0.1888166E+01  0.2491582E+07 -0.1253427E+01  0.5981946E-02  0.1074484E-01
  0.1302041E+01  0.6087522E+06 -0.1237619E+01  0.7633509E+06 -0.1237618E+01  0.7072338E+05 -0.4136298E+00  0.3105790E+07  0.1903969E+01  0.2476786E+07 -0.1237624E+01  0.1738593E-01 -0.1537534E+00
  0.1340816E+01  0.5927464E+06 -0.1225905E+01  0.7432808E+06 -0.1225905E+01  0.6152095E+05 -0.4526210E+00  0.3068568E+07  0.1915681E+01  0.2447100E+07 -0.1225911E+01  0.1805670E-02  0.2702774E+01
  0.1379592E+01  0.5739998E+06 -0.1218685E+01  0.7197729E+06 -0.1218686E+01  0.5333983E+05 -0.4936145E+00  0.3015468E+07  0.1922900E+01  0.2404756E+07 -0.1218692E+01  0.6658663E-02 -0.2056113E+01
  0.1418367E+01  0.5532104E+06 -0.1216221E+01  0.6937037E+06 -0.1216221E+01  0.4608414E+05 -0.5368307E+00  0.2949376E+07  0.1925361E+01  0.2352047E+07 -0.1216232E+01  0.5385550E-02  0.9749355E+00
  0.1457143E+01  0.5310182E+06 -0.1218651E+01  0.6658759E+06 -0.1218651E+01  0.3967875E+05 -0.5822340E+00  0.2873112E+07  0.1922927E+01  0.2291230E+07 -0.1218665E+01  0.6160662E-02  0.7044967E+00
  0.1495918E+01  0.5080009E+06 -0.1226006E+01  0.6370129E+06 -0.1226006E+01  0.3405188E+05 -0.6295766E+00  0.2789363E+07  0.1915570E+01  0.2224443E+07 -0.1226023E+01  0.1348900E-01 -0.1040632E+01
  0.1534694E+01  0.4846359E+06 -0.1238234E+01  0.6077144E+06 -0.1238234E+01  0.2912574E+05 -0.6788363E+00  0.2700452E+07  0.1903342E+01  0.2153538E+07 -0.1238250E+01  0.3929000E-02 -0.2641244E+01
  0.1573469E+01  0.4613231E+06 -0.1255214E+01  0.5784809E+06 -0.1255214E+01  0.2482541E+05 -0.7300587E+00  0.2608371E+07  0.1886359E+01  0.2080105E+07 -0.1255233E+01  0.3180147E-02 -0.8752481E+00
  0.1612245E+01  0.4383559E+06 -0.1276793E+01  0.5496808E+06 -0.1276793E+01  0.2108291E+05 -0.7835144E+00  0.2514681E+07  0.1864774E+01  0.2005391E+07 -0.1276818E+01  0.5083925E-02  0.2741698E+01
  0.1651020E+01  0.4159654E+06 -0.1302792E+01  0.5216041E+06 -0.1302793E+01  0.1783963E+05 -0.8387079E+00  0.2420724E+07  0.1838774E+01  0.1930462E+07 -0.1302818E+01  0.4825836E-02  0.5718795E+00
  0.1689796E+01  0.3943173E+06 -0.1333016E+01  0.4944583E+06 -0.1333016E+01  0.1503608E+05 -0.8955652E+00  0.2327510E+07  0.1808552E+01  0.1856128E+07 -0.1333041E+01  0.2531901E-02  0.1993672E+01
  0.1728571E+01  0.3735236E+06 -0.1367265E+01  0.4683838E+06 -0.1367265E+01  0.1261782E+05 -0.9541832E+00  0.2235828E+07  0.1774306E+01  0.1783014E+07 -0.1367286E+01  0.4943212E-02  0.5036227E+00
  0.1767347E+01  0.3536539E+06 -0.1405341E+01  0.4434683E+06 -0.1405342E+01  0.1053573E+05 -0.1014532E+01  0.2146234E+07  0.1736232E+01  0.1711564E+07 -0.1405360E+01  0.2369158E-02 -0.1194044E+01
  0.1806122E+01  0.3347412E+06 -0.1447061E+01  0.4197521E+06 -0.1447061E+01  0.8745991E+04 -0.1076276E+01  0.2059110E+07  0.1694514E+01  0.1642085E+07 -0.1447078E+01  0.7286250E-02 -0.1104492E+01
  0.1844898E+01  0.3167990E+06 -0.1492245E+01  0.3972533E+06 -0.1492245E+01  0.7207699E+04 -0.1139053E+01  0.1974753E+07  0.1649336E+01  0.1574813E+07 -0.1492256E+01  0.5445911E-02 -0.7207084E+00
  0.1883674E+01  0.2998200E+06 -0.1540728E+01  0.3759623E+06 -0.1540728E+01  0.5883360E+04 -0.1202884E+01  0.1893335E+07  0.1600864E+01  0.1509885E+07 -0.1540728E+01  0.7258279E-02  0.1853964E+01
  0.1922449E+01  0.2837841E+06 -0.1592352E+01  0.3558537E+06 -0.1592352E+01  0.4737737E+04 -0.1267705E+01  0.1814957E+07  0.1549255E+01  0.1447380E+07 -0.1592338E+01  0.1181422E-01 -0.1781108E+00
  0.1961224E+01  0.2686588E+06 -0.1646970E+01  0.3368875E+06 -0.1646970E+01  0.3734295E+04 -0.1333079E+01  0.1739638E+07  0.1494653E+01  0.1387316E+07 -0.1646940E+01  0.8113608E-02  0.2976810E+01
  0.2000000E+01  0.2544090E+06 -0.1704440E+01  0.3190186E+06 -0.1704440E+01  0.2826978E+04 -0.1396430E+01  0.1667377E+07  0.1437190E+01  0.1329688E+07 -0.1704402E+01  0.1802902E-01  0.1700881E+00
Zone t="Excitation force - beta = 102.857 deg",I=    50,F=POINT
  0.1000000E+00  0.3028286E+04  0.1570785E+01  0.1326779E+05 -0.1570790E+01  0.7512125E+06 -0.4015115E-04  0.4109291E+05  0.1570802E+01  0.9379185E+04  0.1570809E+01  0.4371490E-02  0.3131374E+01
  0.1387755E+00  0.5810623E+04  0.1570801E+01  0.2545801E+05 -0.1570804E+01  0.7415747E+06 -0.1470492E-03  0.7897017E+05  0.1570793E+01  0.1802442E+05  0.1570816E+01  0.9323147E-02 -0.1564610E-02
  0.1775510E+00  0.9465454E+04  0.1570807E+01  0.4147086E+05 -0.1570787E+01  0.7289434E+06 -0.3875199E-03  0.1289060E+06  0.1570804E+01  0.2942195E+05  0.1570814E+01  0.9305766E-03  0.2534431E+01
  0.2163265E+00  0.1396745E+05  0.1570833E+01  0.6119532E+05 -0.1570759E+01  0.7134504E+06 -0.8366755E-03  0.1907021E+06  0.1570832E+01  0.4352651E+05  0.1570823E+01  0.3794509E-02 -0.4932571E-01
  0.2551020E+00  0.1928680E+05  0.1570890E+01  0.8450095E+05 -0.1570701E+01  0.6952750E+06 -0.1579427E-02  0.2641378E+06  0.1570892E+01  0.6028770E+05  0.1570894E+01  0.5429127E-02 -0.4076594E-01
  0.2938775E+00  0.2538871E+05  0.1571012E+01  0.1112352E+06 -0.1570577E+01  0.6746286E+06 -0.2706094E-02  0.3489486E+06  0.1571014E+01  0.7964520E+05  0.1571016E+01  0.2715655E-02  0.3114986E+01
  0.3326530E+00  0.3223572E+05  0.1571249E+01  0.1412339E+06 -0.1570346E+01  0.6517625E+06 -0.4308295E-02  0.4448686E+06  0.1571250E+01  0.1015384E+06  0.1571248E+01  0.1697253E-02 -0.5108435E+00
  0.3714286E+00  0.3978704E+05  0.1571649E+01  0.1743184E+06 -0.1569945E+01  0.6269493E+06 -0.6475449E-02  0.5516122E+06  0.1571649E+01  0.1259019E+06  0.1571648E+01  0.1051279E-01  0.5165646E-02
  0.4102041E+00  0.4800010E+05  0.1572300E+01  0.2103020E+06 -0.1569292E+01  0.6004849E+06 -0.9292277E-02  0.6688924E+06  0.1572302E+01  0.1526703E+06  0.1572301E+01  0.6523923E-02 -0.2985475E+01
  0.4489796E+00  0.5683055E+05  0.1573310E+01  0.2489909E+06 -0.1568283E+01  0.5726751E+06 -0.1283736E-01  0.7964236E+06  0.1573310E+01  0.1817784E+06  0.1573311E+01  0.9261262E-02 -0.2947339E+01
  0.4877551E+00  0.6623173E+05  0.1574801E+01  0.2901802E+06 -0.1566792E+01  0.5438168E+06 -0.1718259E-01  0.9338912E+06  0.1574800E+01  0.2131546E+06  0.1574800E+01  0.6970815E-02 -0.2819644E+01
  0.5265306E+00  0.7615599E+05  0.1576925E+01  0.3336611E+06 -0.1564667E+01  0.5142149E+06 -0.2239436E-01  0.1081004E+07  0.1576926E+01  0.2467320E+06  0.1576925E+01  0.9633462E-02 -0.2126150E+00
  0.5653061E+00  0.8655099E+05  0.1579859E+01  0.3792044E+06 -0.1561735E+01  0.4841836E+06 -0.2853548E-01  0.1237418E+07  0.1579859E+01  0.2824328E+06  0.1579858E+01  0.2780216E-02 -0.2015445E+01
  0.6040816E+00  0.9735955E+05  0.1583791E+01  0.4265601E+06 -0.1557801E+01  0.4539728E+06 -0.3566505E-01  0.1402685E+07  0.1583791E+01  0.3201538E+06  0.1583792E+01  0.7463336E-02 -0.2702068E+01
  0.6428572E+00  0.1085202E+06  0.1588936E+01  0.4754582E+06 -0.1552655E+01  0.4238682E+06 -0.4384413E-01  0.1576359E+07  0.1588937E+01  0.3597939E+06  0.1588937E+01  0.7083042E-02 -0.1601653E+01
  0.6816327E+00  0.1199551E+06  0.1595517E+01  0.5255574E+06 -0.1546076E+01  0.3940948E+06 -0.5313418E-01  0.1757692E+07  0.1595517E+01  0.4011817E+06  0.1595517E+01  0.4452772E-02  0.2825160E+01
  0.7204082E+00  0.1315805E+06  0.1603755E+01  0.5764919E+06 -0.1537838E+01  0.3648817E+06 -0.6360144E-01  0.1945870E+07  0.1603755E+01  0.4441319E+06  0.1603754E+01  0.6491652E-02  0.2380512E+01
  0.7591837E+00  0.1432857E+06  0.1613865E+01  0.6277759E+06 -0.1527728E+01  0.3364162E+06 -0.7531612E-01  0.2139598E+07  0.1613865E+01  0.4883488E+06  0.1613864E+01  0.8314079E-02 -0.3127367E+01
  0.7979592E+00  0.1549480E+06  0.1626040E+01  0.6788709E+06 -0.1515553E+01  0.3088928E+06 -0.8835505E-01  0.2337410E+07  0.1626040E+01  0.5334990E+06  0.1626039E+01  0.3442890E-02  0.3015248E+01
  0.8367347E+00  0.1664093E+06  0.1640428E+01  0.7290868E+06 -0.1501165E+01  0.2824200E+06 -0.1027962E+00  0.2537117E+07  0.1640428E+01  0.5790805E+06  0.1640428E+01  0.1321732E-01 -0.2289725E+00
  0.8755102E+00  0.1774905E+06  0.1657117E+01  0.7776367E+06 -0.1484475E+01  0.2571776E+06 -0.1187232E+00  0.2736236E+07  0.1657117E+01  0.6245278E+06  0.1657117E+01  0.7731342E-03  0.7357926E+00
  0.9142857E+00  0.1879825E+06  0.1676105E+01  0.8236048E+06 -0.1465487E+01  0.2332005E+06 -0.1362266E+00  0.2931537E+07  0.1676105E+01  0.6691044E+06  0.1676105E+01  0.5940721E-02  0.8038532E+00
  0.9530612E+00  0.1976535E+06  0.1697279E+01  0.8659768E+06 -0.1444314E+01  0.2106060E+06 -0.1553837E+00  0.3119324E+07  0.1697278E+01  0.7119656E+06  0.1697279E+01  0.2147903E-02 -0.3083880E+01
  0.9918368E+00  0.2062638E+06  0.1720392E+01  0.9037006E+06 -0.1421200E+01  0.1894581E+06 -0.1762699E+00  0.3295590E+07  0.1720393E+01  0.7521970E+06  0.1720392E+01  0.2674624E-02 -0.1303602E+01
  0.1030612E+01  0.2135658E+06  0.1745055E+01  0.9356929E+06 -0.1396538E+01  0.1697195E+06 -0.1989969E+00  0.3455810E+07  0.1745054E+01  0.7887662E+06  0.1745054E+01  0.3923215E-02  0.1039688E+01
  0.1069388E+01  0.2193426E+06  0.1770725E+01  0.9610032E+06 -0.1370867E+01  0.1514578E+06 -0.2235940E+00  0.3595836E+07  0.1770725E+01  0.8207256E+06  0.1770725E+01  0.9949185E-02  0.6393301E+00
  0.1108163E+01  0.2234225E+06  0.1796732E+01  0.9788779E+06 -0.1344861E+01  0.1346632E+06 -0.2501042E+00  0.3711956E+07  0.1796731E+01  0.8472286E+06  0.1796731E+01  0.1459682E-01 -0.2226208E+01
  0.1146939E+01  0.2256905E+06  0.1822304E+01  0.9888159E+06 -0.1319289E+01  0.1192446E+06 -0.2786909E+00  0.3801082E+07  0.1822302E+01  0.8675722E+06  0.1822302E+01  0.1593011E-01  0.1875666E+00
  0.1185714E+01  0.2261183E+06  0.1846610E+01  0.9906893E+06 -0.1294983E+01  0.1052078E+06 -0.3092991E+00  0.3861538E+07  0.1846607E+01  0.8813710E+06  0.1846608E+01  0.6318743E-02 -0.6913688E-01
  0.1224490E+01  0.2247573E+06  0.1868822E+01  0.9847264E+06 -0.1272770E+01  0.9249959E+05 -0.3419210E+00  0.3892877E+07  0.1868821E+01  0.8885237E+06  0.1868821E+01  0.6349633E-02 -0.1165352E+01
  0.1263265E+01  0.2217423E+06  0.1888170E+01  0.9715159E+06 -0.1253423E+01  0.8103045E+05 -0.3766743E+00  0.3895997E+07  0.1888165E+01  0.8892362E+06  0.1888165E+01  0.3988667E-02  0.9447896E+00
  0.1302041E+01  0.2172610E+06  0.1903974E+01  0.9518833E+06 -0.1237619E+01  0.7072341E+05 -0.4136297E+00  0.3872856E+07  0.1903968E+01  0.8839540E+06  0.1903968E+01  0.4255039E-02  0.6166012E+00
  0.1340816E+01  0.2115488E+06  0.1915687E+01  0.9268562E+06 -0.1225905E+01  0.6152093E+05 -0.4526212E+00  0.3826439E+07  0.1915681E+01  0.8733601E+06  0.1915681E+01  0.8703391E-02 -0.2732464E+01
  0.1379592E+01  0.2048582E+06  0.1922907E+01  0.8975419E+06 -0.1218686E+01  0.5333986E+05 -0.4936144E+00  0.3760224E+07  0.1922900E+01  0.8582466E+06  0.1922900E+01  0.4562800E-02 -0.4925830E+00
  0.1418367E+01  0.1974385E+06  0.1925371E+01  0.8650344E+06 -0.1216220E+01  0.4608417E+05 -0.5368302E+00  0.3677810E+07  0.1925360E+01  0.8394361E+06  0.1925361E+01  0.1849389E-02  0.3076663E+00
  0.1457143E+01  0.1895183E+06  0.1922942E+01  0.8303338E+06 -0.1218651E+01  0.3967879E+05 -0.5822338E+00  0.3582711E+07  0.1922927E+01  0.8177309E+06  0.1922927E+01  0.3211004E-02  0.1523394E+01
  0.1495918E+01  0.1813034E+06  0.1915586E+01  0.7943421E+06 -0.1226006E+01  0.3405188E+05 -0.6295765E+00  0.3478279E+07  0.1915570E+01  0.7938949E+06  0.1915570E+01  0.3908866E-02  0.1667923E+00
  0.1534694E+01  0.1729645E+06  0.1903358E+01  0.7578070E+06 -0.1238234E+01  0.2912575E+05 -0.6788365E+00  0.3367410E+07  0.1903342E+01  0.7685894E+06  0.1903342E+01  0.9205100E-02  0.2325521E+01
  0.1573469E+01  0.1646444E+06  0.1886378E+01  0.7213541E+06 -0.1255214E+01  0.2482541E+05 -0.7300591E+00  0.3252582E+07  0.1886359E+01  0.7423818E+06  0.1886359E+01  0.2650920E-02  0.2166494E+00
  0.1612245E+01  0.1564473E+06  0.1864799E+01  0.6854408E+06 -0.1276793E+01  0.2108291E+05 -0.7835140E+00  0.3135754E+07  0.1864774E+01  0.7157161E+06  0.1864774E+01  0.5208496E-02 -0.9464045E+00
  0.1651020E+01  0.1484563E+06  0.1838800E+01  0.6504297E+06 -0.1302793E+01  0.1783962E+05 -0.8387087E+00  0.3018592E+07  0.1838774E+01  0.6889742E+06  0.1838774E+01  0.3816784E-02 -0.3003606E+01
  0.1689796E+01  0.1407303E+06  0.1808576E+01  0.6165797E+06 -0.1333016E+01  0.1503607E+05 -0.8955657E+00  0.2902358E+07  0.1808552E+01  0.6624443E+06  0.1808552E+01  0.6646660E-02  0.1514695E+01
  0.1728571E+01  0.1333091E+06  0.1774327E+01  0.5840654E+06 -0.1367266E+01  0.1261782E+05 -0.9541826E+00  0.2788033E+07  0.1774306E+01  0.6363506E+06  0.1774306E+01  0.6824933E-02 -0.2569376E+01
  0.1767347E+01  0.1262176E+06  0.1736251E+01  0.5529958E+06 -0.1405342E+01  0.1053572E+05 -0.1014532E+01  0.2676308E+07  0.1736232E+01  0.6108509E+06  0.1736233E+01  0.1006347E-01 -0.1421588E+01
  0.1806122E+01  0.1194676E+06  0.1694531E+01  0.5234223E+06 -0.1447061E+01  0.8745979E+04 -0.1076278E+01  0.2567668E+07  0.1694514E+01  0.5860536E+06  0.1694514E+01  0.1082867E-02  0.2638195E+01
  0.1844898E+01  0.1130642E+06  0.1649348E+01  0.4953668E+06 -0.1492245E+01  0.7207703E+04 -0.1139052E+01  0.2462474E+07  0.1649336E+01  0.5620442E+06  0.1649336E+01  0.7300309E-02  0.3128072E+00
  0.1883674E+01  0.1070045E+06  0.1600864E+01  0.4688172E+06 -0.1540728E+01  0.5883361E+04 -0.1202882E+01  0.2360948E+07  0.1600864E+01  0.5388711E+06  0.1600863E+01  0.9993948E-02  0.3141183E+01
  0.1922449E+01  0.1012814E+06  0.1549240E+01  0.4437426E+06 -0.1592352E+01  0.4737747E+04 -0.1267706E+01  0.2263214E+07  0.1549255E+01  0.5165634E+06  0.1549255E+01  0.5611092E-02  0.1423034E+01
  0.1961224E+01  0.9588327E+05  0.1494622E+01  0.4200921E+06 -0.1646970E+01  0.3734298E+04 -0.1333080E+01  0.2169295E+07  0.1494653E+01  0.4951279E+06  0.1494653E+01  0.6516074E-02 -0.1839935E-02
  0.2000000E+01  0.9079758E+05  0.1437151E+01  0.3978097E+06 -0.1704440E+01  0.2826983E+04 -0.1396430E+01  0.2079185E+07  0.1437190E+01  0.4745601E+06  0.1437190E+01  0.8654522E-02 -0.3006303E+01
Zone t="Excitation force - beta = 154.286 deg",I=    50,F=POINT