VARIABLES="w (rad/s)"
"abs(F   1   1)" "angle(F   1   1)"
"abs(F   1   2)" "angle(F   1   2)"
"abs(F   1   3)" "angle(F   1   3)"
"abs(F   1   4)" "angle(F   1   4)"
"abs(F   1   5)" "angle(F   1   5)"
"abs(F   1   6)" "angle(F   1   6)"
Zone t="FKforce - beta =   0.000",I=   525,F=POINT
  0.4000000E-01  0.1748772E+02 -0.1570801E+01  0.1157165E-02  0.3141586E+01  0.3764210E+04 -0.1798399E-10  0.6020681E-03 -0.1219389E-04  0.4664969E+01  0.1570800E+01  0.5688255E-13 -0.3709235E-01
  0.8000000E-01  0.3497893E+02 -0.1570798E+01  0.2724886E-02  0.3141591E+01  0.3763168E+04  0.2770270E-10  0.2539114E-03 -0.4845287E-04  0.9330589E+01  0.1570795E+01  0.1712371E-12  0.9089468E-01
  0.1200000E+00  0.5247707E+02 -0.1570796E+01  0.6895065E-03  0.3646914E-04  0.3761421E+04 -0.3404481E-11  0.1659533E-02 -0.1380698E-04  0.1399748E+02  0.1570797E+01  0.2283707E-12  0.9347678E-01
  0.1600000E+00  0.6998562E+02 -0.1570796E+01  0.1406789E-02  0.3141525E+01  0.3758970E+04 -0.1653798E-10  0.4905441E-03 -0.3141592E+01  0.1866631E+02  0.1570796E+01  0.2931810E-12  0.2893675E+01
  0.2000000E+00  0.8750807E+02 -0.1570797E+01  0.1948595E-02 -0.7647131E-05  0.3755829E+04  0.2616055E-10  0.1933486E-03 -0.3141551E+01  0.2333769E+02  0.1570797E+01  0.7958123E-12 -0.3348202E-02
  0.2400000E+00  0.1050479E+03 -0.1570796E+01  0.8894205E-03  0.3141553E+01  0.3751990E+04 -0.1905096E-10  0.4366537E-04  0.1860935E-02  0.2801231E+02  0.1570795E+01  0.6821418E-12  0.3133780E+01
  0.2800000E+00  0.1226090E+03 -0.1570796E+01  0.3705382E-02 -0.3141570E+01  0.3747450E+04 -0.6194402E-10  0.7084168E-03 -0.1662703E-04  0.3269090E+02  0.1570796E+01  0.1217323E-12 -0.2775990E+01
  0.3200000E+00  0.1401944E+03 -0.1570795E+01  0.1487732E-02 -0.2504006E-04  0.3742219E+04  0.2650456E-10  0.5297803E-03  0.1439546E-03  0.3737402E+02  0.1570795E+01  0.1815103E-12  0.3496071E+00
  0.3600000E+00  0.1578080E+03 -0.1570796E+01  0.9628534E-03 -0.1354154E-03  0.3736295E+04  0.1115455E-10  0.6120510E-03 -0.3141438E+01  0.4206233E+02  0.1570797E+01  0.4626719E-12 -0.1853479E+00
  0.4000000E+00  0.1754543E+03 -0.1570796E+01  0.3782153E-02  0.1969931E-04  0.3729679E+04  0.3495882E-11  0.1613269E-02  0.3139685E-04  0.4675673E+02  0.1570797E+01  0.5172616E-12 -0.1482107E+00
  0.4400000E+00  0.1931359E+03 -0.1570797E+01  0.9514093E-03  0.3141565E+01  0.3722364E+04 -0.1751376E-09  0.5759301E-03  0.8643775E-04  0.5145777E+02  0.1570796E+01  0.1331320E-12  0.2594308E+01
  0.4800000E+00  0.2108578E+03 -0.1570797E+01  0.1021862E-02  0.1239501E-03  0.3714365E+04 -0.2361927E-09  0.1038875E-02  0.3141476E+01  0.5616623E+02  0.1570796E+01  0.2866547E-12 -0.1305040E+00
  0.5200000E+00  0.2286229E+03 -0.1570796E+01  0.3447533E-02  0.3141501E+01  0.3705673E+04  0.4435859E-10  0.9775541E-03  0.1758061E-03  0.6088283E+02  0.1570796E+01  0.3759209E-12  0.2707535E+01
  0.5600000E+00  0.2464363E+03 -0.1570796E+01  0.2366781E-02  0.6768158E-04  0.3696291E+04  0.1423582E-10  0.2523484E-03 -0.4213004E-03  0.6560850E+02  0.1570797E+01  0.5886044E-12  0.2625464E+00
  0.6000000E+00  0.2643015E+03 -0.1570796E+01  0.3118634E-02  0.2150147E-04  0.3686229E+04  0.1680117E-09  0.1499148E-03 -0.3141446E+01  0.7034382E+02  0.1570797E+01  0.3422427E-12 -0.2297439E+01
  0.6400000E+00  0.2822231E+03 -0.1570796E+01  0.1887085E-03 -0.3140013E+01  0.3675478E+04  0.2820210E-09  0.1135811E-02 -0.1393552E-03  0.7508980E+02  0.1570796E+01  0.6521915E-13  0.5123895E+00
  0.6800000E+00  0.3002052E+03 -0.1570797E+01  0.3110171E-03  0.3141030E+01  0.3664048E+04 -0.2300316E-10  0.1667015E-02  0.3141523E+01  0.7984711E+02  0.1570796E+01  0.9521339E-13 -0.2210566E+01
  0.7200000E+00  0.3182533E+03 -0.1570796E+01  0.3456950E-02 -0.3141536E+01  0.3651939E+04  0.2677724E-11  0.8206456E-03 -0.1158361E-04  0.8461688E+02  0.1570797E+01  0.3343517E-12 -0.2318618E+01
  0.7600000E+00  0.3363710E+03 -0.1570796E+01  0.8535388E-04  0.3140807E+01  0.3639151E+04 -0.7703117E-10  0.1822662E-03 -0.3140896E+01  0.8939968E+02  0.1570796E+01  0.3088205E-12  0.2739722E+01
  0.8000000E+00  0.3545633E+03 -0.1570796E+01  0.1077771E-02 -0.3141517E+01  0.3625689E+04  0.5630540E-09  0.8146165E-04 -0.3140775E+01  0.9419661E+02  0.1570796E+01  0.5728579E-13  0.1243550E+00
  0.8400000E+00  0.3728359E+03 -0.1570796E+01  0.2484560E-02 -0.3141578E+01  0.3611559E+04 -0.1769007E-09  0.9632770E-03  0.2022709E-03  0.9900879E+02  0.1570796E+01  0.2283707E-12  0.9347678E-01
  0.8800000E+00  0.3911932E+03 -0.1570796E+01  0.1387596E-02 -0.3141351E+01  0.3596756E+04 -0.4686706E-10  0.1332099E-02 -0.1023038E-03  0.1038370E+03  0.1570797E+01  0.2853030E-12 -0.8727771E-01
  0.9200000E+00  0.4096410E+03 -0.1570796E+01  0.2550483E-02 -0.1606684E-03  0.3581293E+04  0.6969394E-10  0.8207264E-03  0.3497791E-04  0.1086824E+03  0.1570796E+01  0.1464821E-12  0.6823165E+00
  0.9600000E+00  0.4281846E+03 -0.1570796E+01  0.4589081E-02 -0.9416563E-04  0.3565171E+04  0.4574102E-09  0.8645176E-03  0.3141573E+01  0.1135459E+03  0.1570796E+01  0.4060054E-12 -0.2568152E+01
  0.1000000E+01  0.4468303E+03 -0.1570796E+01  0.9706021E-03  0.3141171E+01  0.3548387E+04 -0.1845119E-09  0.1884119E-02  0.3141591E+01  0.1184289E+03  0.1570796E+01  0.5910012E-12  0.2309420E+01
  0.1040000E+01  0.4655822E+03 -0.1570796E+01  0.4059553E-02 -0.3141576E+01  0.3530958E+04 -0.5462453E-09  0.2303343E-04 -0.1336454E-01  0.1233323E+03  0.1570797E+01  0.6481147E-12 -0.2662520E+00
  0.1080000E+01  0.4844492E+03 -0.1570796E+01  0.3895521E-02  0.3251423E-04  0.3512875E+04  0.7555832E-10  0.8727338E-03  0.6237306E-04  0.1282577E+03  0.1570796E+01  0.4301572E-12 -0.2751884E+01
  0.1120000E+01  0.5034350E+03 -0.1570796E+01  0.1419902E-02  0.3141351E+01  0.3494150E+04 -0.1404653E-09  0.7872263E-03 -0.3141451E+01  0.1332059E+03  0.1570796E+01  0.7169091E-12 -0.1330625E+01
  0.1160000E+01  0.5225479E+03 -0.1570796E+01  0.2889752E-02  0.3141590E+01  0.3474790E+04  0.6319976E-09  0.1238520E-02 -0.3141491E+01  0.1381780E+03  0.1570796E+01  0.1302931E-12  0.1119343E+01
  0.1200000E+01  0.5417936E+03 -0.1570796E+01  0.3623962E-03  0.8223684E-04  0.3454797E+04 -0.1240039E-09  0.6079306E-03 -0.2353945E-03  0.1431760E+03  0.1570796E+01  0.1255571E-12  0.4383366E+00
  0.1240000E+01  0.5611791E+03 -0.1570796E+01  0.1410127E-02 -0.3141566E+01  0.3434175E+04 -0.2774299E-09  0.4862996E-04 -0.3206449E-02  0.1482012E+03  0.1570796E+01  0.3618191E-12  0.3403820E+00
  0.1280000E+01  0.5807122E+03 -0.1570796E+01  0.2498507E-02  0.3141420E+01  0.3412938E+04  0.9987407E-10  0.3325152E-03 -0.2554620E-03  0.1532544E+03  0.1570796E+01  0.1737927E-12  0.2283857E+01
  0.1320000E+01  0.6003998E+03 -0.1570796E+01  0.1031637E-02 -0.3141015E+01  0.3391087E+04  0.6481465E-10  0.1599390E-02  0.3141365E+01  0.1583374E+03  0.1570796E+01  0.2219807E-12  0.6947383E+00
  0.1360000E+01  0.6202490E+03 -0.1570796E+01  0.1889110E-02  0.2563577E-03  0.3368630E+04  0.6040852E-09  0.1217883E-02 -0.1361490E-03  0.1634514E+03  0.1570796E+01  0.4439613E-12 -0.6947383E+00
  0.1400000E+01  0.6402682E+03 -0.1570796E+01  0.8142011E-04 -0.2013174E-02  0.3345575E+04 -0.5673272E-09  0.6807112E-04  0.2891420E-02  0.1685985E+03  0.1570796E+01  0.3668080E-12  0.2764683E+01
  0.1440000E+01  0.6604658E+03 -0.1570796E+01  0.7288458E-03 -0.3140836E+01  0.3321929E+04 -0.1174131E-08  0.8236077E-03  0.3141503E+01  0.1737798E+03  0.1570796E+01  0.7411475E-12 -0.3064821E+01
  0.1480000E+01  0.6808488E+03 -0.1570796E+01  0.3311638E-03 -0.1507378E-02  0.3297703E+04  0.9771578E-10  0.1125497E-02 -0.3141393E+01  0.1789969E+03  0.1570796E+01  0.3410605E-12  0.1570796E+01
  0.1520000E+01  0.7014265E+03 -0.1570796E+01  0.1847982E-02 -0.3141512E+01  0.3272903E+04  0.7133806E-09  0.7388329E-03  0.1663804E-03  0.1842517E+03  0.1570796E+01  0.3483834E-12  0.2936197E+01
  0.1560000E+01  0.7222071E+03 -0.1570796E+01  0.1917482E-02 -0.2953062E-03  0.3247545E+04 -0.2724386E-10  0.6431551E-04  0.3141568E+01  0.1895455E+03  0.1570796E+01  0.4935588E-12  0.3992208E+00
  0.1600000E+01  0.7431976E+03 -0.1570796E+01  0.1033306E-02  0.3140872E+01  0.3221632E+04 -0.5842390E-09  0.1396304E-02 -0.3141306E+01  0.1948799E+03  0.1570796E+01  0.7105427E-13 -0.6435011E+00
  0.1640000E+01  0.7644095E+03 -0.1570796E+01  0.1436710E-02 -0.3141582E+01  0.3195179E+04 -0.1661421E-09  0.5778896E-03 -0.3141498E+01  0.2002566E+03  0.1570796E+01  0.4963638E-12 -0.1339706E+01
  0.1680000E+01  0.7858491E+03 -0.1570796E+01  0.6637576E-03 -0.7857398E-03  0.3168196E+04 -0.1062371E-08  0.1838688E-03 -0.1289159E-02  0.2056772E+03  0.1570796E+01  0.1730285E-12 -0.1236060E+01
  0.1720000E+01  0.8075263E+03 -0.1570796E+01  0.2667308E-02  0.1229050E-03  0.3140695E+04 -0.1125643E-08  0.9075701E-03 -0.3141554E+01  0.2111434E+03  0.1570796E+01  0.6176411E-12 -0.2739722E+01
  0.1760000E+01  0.8294472E+03 -0.1570796E+01  0.1844168E-03 -0.3141027E+01  0.3112699E+04  0.8078425E-10  0.1141110E-02  0.2653844E-03  0.2166563E+03  0.1570796E+01  0.3940791E-12 -0.2018316E+01
  0.1800000E+01  0.8516223E+03 -0.1570796E+01  0.1725555E-02 -0.3141308E+01  0.3084205E+04 -0.1121499E-08  0.6633117E-03  0.2213298E-03  0.2222179E+03  0.1570796E+01  0.5995566E-12 -0.5485494E+00
  0.1840000E+01  0.8740610E+03 -0.1570796E+01  0.6910567E-03 -0.1099706E-02  0.3055233E+04 -0.1063852E-08  0.6493624E-03  0.3141234E+01  0.2278296E+03  0.1570796E+01  0.4582863E-12  0.2089942E+01
  0.1880000E+01  0.8967695E+03 -0.1570796E+01  0.1081705E-02 -0.3581662E-03  0.3025807E+04 -0.8679767E-10  0.1239791E-03 -0.3141426E+01  0.2334921E+03  0.1570796E+01  0.2313359E-12 -0.2399645E+01
  0.1920000E+01  0.9197529E+03 -0.1570796E+01  0.6497081E-04  0.3134253E+01  0.2995930E+04 -0.2188472E-09  0.2959275E-03 -0.1176032E-02  0.2392066E+03  0.1570796E+01  0.1530556E-12  0.1951303E+01
  0.1960000E+01  0.9430225E+03 -0.1570796E+01  0.4899522E-03  0.3138734E+01  0.2965629E+04 -0.8416239E-10  0.2832413E-03 -0.9038392E-04  0.2449750E+03  0.1570796E+01  0.4263256E-12 -0.2498091E+01
  0.2000000E+01  0.9665840E+03 -0.1570796E+01  0.2278097E-03  0.2551015E-02  0.2934916E+04 -0.1459696E-09  0.3753490E-03 -0.3140099E+01  0.2507976E+03  0.1570796E+01  0.2060574E-12 -0.1570796E+01
  0.2040000E+01  0.9904414E+03 -0.1570796E+01  0.1174212E-03 -0.2538071E-03  0.2903810E+04  0.2620318E-08  0.4680646E-03 -0.3141573E+01  0.2566748E+03  0.1570796E+01  0.4723907E-12 -0.2377468E+01
  0.2080000E+01  0.1014601E+04 -0.1570796E+01  0.1202345E-02 -0.3718025E-04  0.2872331E+04 -0.5252677E-09  0.7688494E-03  0.3141524E+01  0.2626073E+03  0.1570796E+01  0.6874294E-12 -0.1243550E+00
  0.2120000E+01  0.1039067E+04 -0.1570796E+01  0.1558483E-02  0.9848163E-03  0.2840496E+04  0.2511509E-09  0.1151790E-03 -0.3140732E+01  0.2685956E+03  0.1570796E+01  0.9990393E-12 -0.2492402E+01
  0.2160000E+01  0.1063841E+04 -0.1570796E+01  0.2782524E-02  0.3141566E+01  0.2808326E+04  0.1417383E-08  0.8473829E-03 -0.2294583E-03  0.2746396E+03  0.1570796E+01  0.7055514E-12 -0.9716210E+00
  0.2200000E+01  0.1088927E+04 -0.1570796E+01  0.6301408E-03  0.1300605E-02  0.2775842E+04  0.1570186E-09  0.4580622E-03  0.1405420E-02  0.2807383E+03  0.1570796E+01  0.6293018E-12 -0.1131510E+00
  0.2240000E+01  0.1114323E+04 -0.1570796E+01  0.1255990E-02 -0.3140632E+01  0.2743062E+04 -0.1335669E-08  0.5959395E-04 -0.3134722E+01  0.2868914E+03  0.1570796E+01  0.3845474E-12  0.4801750E+00
  0.2280000E+01  0.1140035E+04 -0.1570796E+01  0.1210630E-02 -0.3140916E+01  0.2710009E+04 -0.4948708E-10  0.6256507E-04  0.4684116E-02  0.2930977E+03  0.1570796E+01  0.6810840E-12 -0.2733961E+01
  0.2320000E+01  0.1166051E+04 -0.1570796E+01  0.2135042E-03 -0.1744834E-02  0.2676711E+04 -0.1537875E-09  0.9393315E-03  0.3141453E+01  0.2993554E+03  0.1570796E+01  0.5194743E-12 -0.2443352E+01
  0.2360000E+01  0.1192375E+04 -0.1570796E+01  0.1813293E-02  0.1972257E-03  0.2643181E+04  0.7258393E-10  0.7454627E-03 -0.6340405E-03  0.3056624E+03  0.1570796E+01  0.2193495E-12 -0.4346702E+00
  0.2400000E+01  0.1218999E+04 -0.1570796E+01  0.1974285E-02 -0.4528575E-04  0.2609442E+04 -0.4825353E-09  0.9906014E-03  0.5423541E-03  0.3120181E+03  0.1570796E+01  0.6301437E-12  0.1243550E+00
  0.2440000E+01  0.1245914E+04 -0.1570796E+01  0.1306356E-02 -0.3140418E+01  0.2575521E+04  0.1618546E-08  0.5142569E-04  0.3130881E+01  0.3184179E+03  0.1570796E+01  0.8416858E-12  0.2937575E+01
  0.2480000E+01  0.1273112E+04 -0.1570796E+01  0.1203468E-03  0.3132430E+01  0.2541440E+04  0.4324164E-10  0.9997627E-03  0.9468631E-04  0.3248588E+03  0.1570796E+01  0.5515295E-12  0.9041035E+00
  0.2520000E+01  0.1300586E+04 -0.1570796E+01  0.1314104E-02 -0.3141003E+01  0.2507213E+04  0.5014674E-09  0.1318400E-02  0.2168577E-03  0.3313377E+03  0.1570796E+01  0.1049320E-11  0.1761552E+01
  0.2560000E+01  0.1328317E+04 -0.1570796E+01  0.6728769E-03  0.3141150E+01  0.2472875E+04  0.1889856E-08  0.2390902E-03 -0.9879703E-03  0.3378501E+03  0.1570796E+01  0.5258016E-12 -0.1570796E+01
  0.2600000E+01  0.1356295E+04 -0.1570796E+01  0.4057894E-03  0.2240008E-02  0.2438437E+04  0.4369328E-09  0.5647745E-03 -0.3141478E+01  0.3443914E+03  0.1570796E+01  0.4556347E-12  0.6241881E-01
  0.2640000E+01  0.1384504E+04 -0.1570796E+01  0.2287032E-03  0.1368256E-02  0.2403922E+04 -0.3586716E-08  0.8436211E-03  0.9175792E-04  0.3509570E+03  0.1570796E+01  0.6046297E-12 -0.1523772E+01
  0.2680000E+01  0.1412925E+04 -0.1570796E+01  0.9759669E-03  0.3140707E+01  0.2369354E+04  0.1541621E-08  0.1776821E-04  0.2702840E-01  0.3575405E+03  0.1570796E+01  0.1187606E-11  0.1937970E+01
  0.2720000E+01  0.1441541E+04 -0.1570796E+01  0.1218919E-02  0.3138964E+01  0.2334752E+04 -0.4180428E-09  0.8899253E-03 -0.8472583E-03  0.3641371E+03  0.1570796E+01  0.4981913E-12 -0.1513716E+01
  0.2760000E+01  0.1470329E+04 -0.1570796E+01  0.1594186E-02 -0.3141480E+01  0.2300133E+04 -0.8146578E-09  0.6696768E-04  0.2807485E-03  0.3707412E+03  0.1570796E+01  0.1140150E-11  0.1395402E+01
  0.2800000E+01  0.1499266E+04 -0.1570796E+01  0.2111495E-02  0.3141557E+01  0.2265514E+04  0.1858111E-09  0.5352828E-03  0.3356726E-04  0.3773448E+03  0.1570796E+01  0.2274847E-12  0.2245537E+01
  0.2840000E+01  0.1528335E+04 -0.1570796E+01  0.1063528E-02  0.2199739E-02  0.2230917E+04 -0.1710759E-08  0.8962530E-03 -0.5396936E-03  0.3839428E+03  0.1570796E+01  0.7310307E-12 -0.1846426E+01
  0.2880000E+01  0.1557506E+04 -0.1570796E+01  0.2352005E-03 -0.3139375E+01  0.2196361E+04  0.2672236E-08  0.2214285E-03  0.3139068E+01  0.3905276E+03  0.1570796E+01  0.8144940E-12 -0.1675673E+01
  0.2920000E+01  0.1586759E+04 -0.1570796E+01  0.5961061E-03 -0.3141093E+01  0.2161856E+04  0.4152890E-09  0.1302712E-03  0.3623514E-02  0.3970930E+03  0.1570796E+01  0.7128128E-12  0.4101273E+00
  0.2960000E+01  0.1616064E+04 -0.1570796E+01  0.2196193E-02  0.6784996E-03  0.2127423E+04  0.1808867E-08  0.3592840E-03 -0.1081864E-02  0.4036309E+03  0.1570796E+01  0.4347685E-12  0.1973956E+00
  0.3000000E+01  0.1645402E+04 -0.1570796E+01  0.2246520E-03  0.3137281E+01  0.2093073E+04 -0.1165781E-08  0.3706708E-03  0.3141122E+01  0.4101347E+03  0.1570796E+01  0.1449229E-12  0.1768192E+01
  0.3040000E+01  0.1674742E+04 -0.1570796E+01  0.4246056E-02 -0.1017730E-03  0.2058821E+04 -0.2196647E-08  0.3232394E-03  0.6519427E-03  0.4165979E+03  0.1570796E+01  0.1510635E-12  0.7188300E+00
  0.3080000E+01  0.1704063E+04 -0.1570796E+01  0.1917363E-02  0.3140528E+01  0.2024682E+04 -0.2395600E-08  0.7542690E-04  0.3134538E+01  0.4230130E+03  0.1570796E+01  0.8286281E-12 -0.1030377E+01
  0.3120000E+01  0.1733337E+04 -0.1570796E+01  0.4132986E-03  0.3141448E+01  0.1990667E+04  0.1989274E-08  0.2407416E-03 -0.1280402E-02  0.4293727E+03  0.1570796E+01  0.7652779E-13  0.1190290E+01
  0.3160000E+01  0.1762536E+04 -0.1570796E+01  0.9419322E-03  0.3141434E+01  0.1956793E+04 -0.1280288E-08  0.3263189E-03  0.3140484E+01  0.4356707E+03  0.1570796E+01  0.4957532E-12 -0.2047264E+01
  0.3200000E+01  0.1791639E+04 -0.1570796E+01  0.6087722E-04  0.3090168E+01  0.1923066E+04 -0.3985711E-08  0.1900106E-03 -0.3138513E+01  0.4418988E+03  0.1570796E+01  0.4591668E-12  0.3805064E+00
  0.3240000E+01  0.1820620E+04 -0.1570796E+01  0.5522685E-05 -0.1190003E+00  0.1889496E+04 -0.4919088E-09  0.4144004E-03  0.8459347E-04  0.4480523E+03  0.1570796E+01  0.1630970E-11 -0.1177346E+01
  0.3280000E+01  0.1849456E+04 -0.1570796E+01  0.6217370E-03  0.3139819E+01  0.1856097E+04  0.4447636E-08  0.3449239E-03  0.2646501E-03  0.4541248E+03  0.1570796E+01  0.8903075E-12 -0.1142848E+01
  0.3320000E+01  0.1878120E+04 -0.1570796E+01  0.2106786E-02 -0.3141182E+01  0.1822878E+04  0.4133244E-08  0.2000072E-03  0.3140427E+01  0.4601088E+03  0.1570796E+01  0.1264127E-11  0.1202815E+01
  0.3360000E+01  0.1906594E+04 -0.1570796E+01  0.3099561E-02 -0.1249952E-03  0.1789849E+04  0.4130425E-08  0.3480953E-03  0.3141353E+01  0.4659985E+03  0.1570796E+01  0.6042538E-12  0.2289626E+01
  0.3400000E+01  0.1934855E+04 -0.1570796E+01  0.7720012E-03  0.3139392E+01  0.1757019E+04 -0.6795349E-09  0.4114015E-03 -0.3205194E-03  0.4717890E+03  0.1570796E+01  0.6543169E-12 -0.1527345E+01
  0.3440000E+01  0.1962879E+04 -0.1570796E+01  0.1914024E-02  0.3736920E-03  0.1724398E+04 -0.1398822E-08  0.6994660E-04 -0.3139193E+01  0.4774737E+03  0.1570796E+01  0.2799214E-12 -0.1152572E+01
  0.3480000E+01  0.1990647E+04 -0.1570796E+01  0.2994540E-03 -0.1393311E-02  0.1691990E+04 -0.3060392E-09  0.1467489E-03  0.5130862E-02  0.4830481E+03  0.1570796E+01  0.6110668E-12  0.1570796E+01
  0.3520000E+01  0.2018141E+04 -0.1570796E+01  0.2000154E-02  0.3140460E+01  0.1659810E+04  0.1941413E-09  0.4155592E-04  0.3138561E+01  0.4885079E+03  0.1570796E+01  0.1145716E-12  0.3017238E+01
  0.3560000E+01  0.2045338E+04 -0.1570796E+01  0.3059932E-04  0.3068481E+01  0.1627861E+04 -0.8661813E-09  0.5318550E-03  0.9173764E-03  0.4938466E+03  0.1570796E+01  0.1075903E-11  0.1357858E+01
  0.3600000E+01  0.2072224E+04 -0.1570796E+01  0.1069129E-02 -0.3141063E+01  0.1596155E+04 -0.1276652E-08  0.1298643E-03 -0.3131068E+01  0.4990612E+03  0.1570796E+01  0.8531249E-12  0.1047518E+01
  0.3640000E+01  0.2098779E+04 -0.1570796E+01  0.2116561E-02 -0.2816108E-03  0.1564694E+04 -0.3449841E-08  0.1696437E-03  0.3140939E+01  0.5041464E+03  0.1570796E+01  0.2842171E-12  0.1570796E+01
  0.3680000E+01  0.2124989E+04 -0.1570796E+01  0.2201021E-02 -0.3141159E+01  0.1533492E+04 -0.3765394E-10  0.8845361E-03 -0.3140869E+01  0.5090993E+03  0.1570796E+01  0.4981913E-12 -0.1513716E+01
  0.3720000E+01  0.2150833E+04 -0.1570796E+01  0.1666398E-02 -0.3140502E+01  0.1502552E+04  0.6115217E-08  0.1215156E-02 -0.3141134E+01  0.5139142E+03  0.1570796E+01  0.1705539E-11  0.1587461E+01
  0.3760000E+01  0.2176297E+04 -0.1570796E+01  0.7256896E-03  0.2915803E-02  0.1471882E+04 -0.1669175E-08  0.1063465E-03  0.3138350E+01  0.5185891E+03  0.1570796E+01  0.1069219E-11  0.1160669E+01
  0.3800000E+01  0.2201373E+04 -0.1570796E+01  0.2201498E-02  0.9069985E-03  0.1441489E+04 -0.4443764E-08  0.1212584E-02  0.5226145E-03  0.5231203E+03  0.1570796E+01  0.3422427E-12 -0.3058451E+01
  0.3840000E+01  0.2226037E+04 -0.1570796E+01  0.3647824E-04 -0.3267962E-02  0.1411378E+04  0.4667902E-08  0.5457680E-03  0.1178700E-02  0.5275043E+03  0.1570796E+01  0.1456041E-11 -0.1898720E+01
  0.3880000E+01  0.2250283E+04 -0.1570796E+01  0.5317036E-04  0.3130943E+01  0.1381559E+04 -0.1287550E-08  0.3383208E-03  0.1321528E-02  0.5317382E+03  0.1570796E+01  0.9185534E-12 -0.6094586E+00
  0.3920000E+01  0.2274093E+04 -0.1570796E+01  0.4059970E-03  0.2202158E-03  0.1352036E+04  0.1587063E-08  0.7829500E-04  0.1004433E-01  0.5358203E+03  0.1570796E+01  0.1627562E-11  0.1474603E+01
  0.3960000E+01  0.2297459E+04 -0.1570796E+01  0.2020091E-02  0.3140944E+01  0.1322814E+04 -0.3102030E-08  0.7380402E-03  0.1848773E-02  0.5397463E+03  0.1570796E+01  0.1088685E-11  0.9429597E+00
  0.4000000E+01  0.2320367E+04 -0.1570796E+01  0.4451085E-04  0.3083309E+01  0.1293903E+04 -0.2953967E-08  0.1437241E-03 -0.2804144E-02  0.5435142E+03  0.1570796E+01  0.8286281E-12  0.1957672E+01
  0.4040000E+01  0.2342808E+04 -0.1570796E+01  0.2303937E-02  0.3138824E+01  0.1265301E+04 -0.4342684E-08  0.1350632E-04  0.3138998E+01  0.5471234E+03  0.1570796E+01  0.5028314E-12  0.2396173E+01
  0.4080000E+01  0.2364766E+04 -0.1570796E+01  0.1249820E-02 -0.3141259E+01  0.1237022E+04 -0.3776420E-08  0.2897756E-03 -0.1680090E-02  0.5505700E+03  0.1570796E+01  0.7418284E-12 -0.1922841E+01
  0.4120000E+01  0.2386231E+04 -0.1570796E+01  0.5411814E-03 -0.1927417E-02  0.1209068E+04  0.2072057E-08  0.6771193E-03 -0.3141249E+01  0.5538536E+03  0.1570796E+01  0.9479823E-12 -0.7004964E+00
  0.4160000E+01  0.2407202E+04 -0.1570796E+01  0.1123757E-02  0.3140399E+01  0.1181440E+04  0.1600237E-08  0.6366447E-03 -0.3139264E+01  0.5569713E+03  0.1570796E+01  0.2620352E-12 -0.2432966E+01
  0.4200000E+01  0.2427662E+04 -0.1570796E+01  0.5023482E-03  0.3140525E+01  0.1154150E+04  0.2098027E-10  0.1021580E-03  0.3136743E+01  0.5599224E+03  0.1570796E+01  0.4462299E-12  0.1410883E+01
  0.4240000E+01  0.2447604E+04 -0.1570796E+01  0.1345551E-02  0.3138558E+01  0.1127197E+04 -0.7584778E-09  0.1411618E-03 -0.2033902E-03  0.5627059E+03  0.1570796E+01  0.7846914E-12  0.2188941E+01
  0.4280000E+01  0.2467019E+04 -0.1570796E+01  0.1974970E-02  0.3141336E+01  0.1100587E+04  0.9832910E-09  0.6611658E-03 -0.3141076E+01  0.5653193E+03  0.1570796E+01  0.4602650E-12  0.1549967E+00
  0.4320000E+01  0.2485900E+04 -0.1570796E+01  0.2117218E-02  0.3140579E+01  0.1074324E+04 -0.4077858E-08  0.3264177E-03 -0.3140730E+01  0.5677621E+03  0.1570796E+01  0.1376694E-11  0.1436198E+01
  0.4360000E+01  0.2504236E+04 -0.1570796E+01  0.2207403E-02  0.2092669E-02  0.1048412E+04  0.7333946E-08  0.6041829E-03 -0.9225988E-03  0.5700338E+03  0.1570796E+01  0.2164533E-12 -0.1165905E+01
  0.4400000E+01  0.2522023E+04 -0.1570796E+01  0.2631278E-02 -0.3140687E+01  0.1022856E+04 -0.7925099E-08  0.2787915E-03  0.3141537E+01  0.5721353E+03  0.1570796E+01  0.9963826E-12  0.1513716E+01
  0.4440000E+01  0.2539253E+04 -0.1570796E+01  0.1322722E-02  0.3138664E+01  0.9976552E+03  0.5074569E-08  0.2155987E-03 -0.7462696E-02  0.5740620E+03  0.1570796E+01  0.4487121E-12  0.1761981E+01
  0.4480000E+01  0.2555923E+04 -0.1570796E+01  0.2687983E-03 -0.3132501E+01  0.9728203E+03 -0.6831599E-08  0.2427074E-03 -0.3140988E+01  0.5758161E+03  0.1570796E+01  0.1327403E-11  0.1198242E+01
  0.4520000E+01  0.2572018E+04 -0.1570796E+01  0.1299065E-02  0.3137348E+01  0.9483449E+03 -0.8775603E-08  0.4278206E-03  0.1331617E-02  0.5773986E+03  0.1570796E+01  0.1875079E-11  0.1090201E+01
  0.4560000E+01  0.2587539E+04 -0.1570796E+01  0.1135922E-02 -0.3423835E-02  0.9242343E+03  0.2720707E-08  0.2967155E-03  0.3140991E+01  0.5788058E+03  0.1570796E+01  0.6294622E-12  0.2647651E+01
  0.4600000E+01  0.2602484E+04 -0.1570796E+01  0.4438283E-03  0.3134206E+01  0.9004955E+03 -0.9825218E-09  0.3581815E-03 -0.3139784E+01  0.5800397E+03  0.1570796E+01  0.8179578E-12 -0.1431356E+01
  0.4640000E+01  0.2616836E+04 -0.1570796E+01  0.2237502E-02 -0.1691572E-02  0.8771278E+03  0.4608154E-08  0.5079256E-04  0.2034126E-01  0.5811006E+03  0.1570796E+01  0.8471863E-12  0.1966878E+01
  0.4680000E+01  0.2630604E+04 -0.1570796E+01  0.4802649E-03  0.3130361E+01  0.8541298E+03  0.1552695E-08  0.3228579E-04  0.3132162E+01  0.5819891E+03  0.1570796E+01  0.7237777E-12  0.8131688E+00
  0.4720000E+01  0.2643771E+04 -0.1570796E+01  0.2126313E-02 -0.2578940E-02  0.8315055E+03  0.8476492E-08  0.1045691E-03  0.3130138E+01  0.5827034E+03  0.1570796E+01  0.9886507E-12 -0.1892547E+01
  0.4760000E+01  0.2656340E+04 -0.1570796E+01  0.1462251E-02 -0.8458166E-03  0.8092590E+03  0.6099419E-09  0.1387888E-04 -0.3095395E+01  0.5832465E+03  0.1570796E+01  0.7066954E-12  0.1835285E+01
  0.4800000E+01  0.2668303E+04 -0.1570796E+01  0.6273868E-03 -0.3138386E+01  0.7873858E+03  0.8021773E-08  0.2519795E-03  0.4414512E-02  0.5836167E+03  0.1570796E+01  0.5968982E-12 -0.1558892E+01
  0.4840000E+01  0.2679658E+04 -0.1570796E+01  0.2825201E-02 -0.3140860E+01  0.7658903E+03  0.4000640E-08  0.2291760E-03 -0.1296793E-02  0.5838164E+03  0.1570796E+01  0.2842171E-12 -0.2214298E+01
  0.4880000E+01  0.2690404E+04 -0.1570796E+01  0.7923289E-03 -0.6977375E-02  0.7447709E+03  0.1753176E-08  0.2810311E-03  0.6111593E-02  0.5838453E+03  0.1570796E+01  0.3337562E-11  0.1626177E+01
  0.4920000E+01  0.2700531E+04 -0.1570796E+01  0.3005179E-02 -0.1279292E-02  0.7240296E+03  0.1665250E-07  0.6008953E-04  0.6557966E-02  0.5837050E+03  0.1570796E+01  0.7156756E-12  0.1990029E+01
  0.4960000E+01  0.2710050E+04 -0.1570796E+01  0.4079455E-03  0.3134141E+01  0.7036659E+03  0.5214706E-09  0.2878688E-04  0.3114301E-01  0.5833962E+03  0.1570796E+01  0.9341678E-12 -0.1309214E+01
  0.5000000E+01  0.2718942E+04 -0.1570796E+01  0.2211409E-04 -0.5258306E-01  0.6836790E+03  0.1162520E-07  0.2100387E-03  0.7670910E-03  0.5829207E+03  0.1570796E+01  0.1220831E-11 -0.1214069E+01
  0.5040000E+01  0.2727217E+04 -0.1570796E+01  0.9870141E-04  0.3126646E+01  0.6640690E+03  0.1565132E-08  0.8111983E-04 -0.1312897E-01  0.5822788E+03  0.1570796E+01  0.1401229E-11  0.1616450E+01
  0.5080000E+01  0.2734865E+04 -0.1570796E+01  0.2259181E-02 -0.3140755E+01  0.6448353E+03 -0.2030657E-08  0.9568739E-04 -0.3131735E+01  0.5814733E+03  0.1570796E+01  0.8302411E-12  0.2080389E+01
  0.5120000E+01  0.2741887E+04 -0.1570796E+01  0.9237683E-03  0.3140447E+01  0.6259758E+03 -0.3591533E-08  0.3151451E-03  0.3139758E+01  0.5805032E+03  0.1570796E+01  0.1272189E-11 -0.1548454E+01
  0.5160000E+01  0.2748289E+04 -0.1570796E+01  0.1596623E-03 -0.1185309E-01  0.6074915E+03 -0.7073552E-08  0.6609765E-05  0.1029216E+00  0.5793715E+03  0.1570796E+01  0.7462052E-12  0.1811156E+01
  0.5200000E+01  0.2754062E+04 -0.1570796E+01  0.8115506E-03 -0.3138618E+01  0.5893790E+03 -0.1285947E-07  0.4107003E-03  0.3141444E+01  0.5780809E+03  0.1570796E+01  0.1300313E-11  0.2066218E+01
  0.5240000E+01  0.2759200E+04 -0.1570796E+01  0.2183686E-03 -0.3116888E+01  0.5716378E+03 -0.2834839E-08  0.3965143E-03 -0.3141172E+01  0.5766317E+03  0.1570796E+01  0.8970303E-12  0.1011357E+01
  0.5280000E+01  0.2763713E+04 -0.1570796E+01  0.1516894E-02 -0.3140453E+01  0.5542651E+03 -0.1355653E-07  0.5264538E-03 -0.3140452E+01  0.5750259E+03  0.1570796E+01  0.4620714E-12 -0.1540037E+01
  0.5320000E+01  0.2767599E+04 -0.1570796E+01  0.1757754E-04 -0.3128028E+01  0.5372602E+03  0.1231801E-07  0.2153265E-03 -0.3139446E+01  0.5732656E+03  0.1570796E+01  0.2781500E-11  0.1522241E+01
  0.5360000E+01  0.2770851E+04 -0.1570796E+01  0.5176432E-03  0.3134194E+01  0.5206202E+03 -0.1488341E-08  0.3194860E-03 -0.3140016E+01  0.5713531E+03  0.1570796E+01  0.4690120E-12  0.1555646E+01
  0.5400000E+01  0.2773478E+04 -0.1570796E+01  0.1792662E-03 -0.1188688E-01  0.5043435E+03  0.7825907E-08  0.1217672E-03  0.3141284E+01  0.5692889E+03  0.1570796E+01  0.7193697E-12 -0.1217806E+01
  0.5440000E+01  0.2775472E+04 -0.1570796E+01  0.2557264E-03  0.8740493E-03  0.4884285E+03  0.1754232E-08  0.9369130E-04 -0.3141035E+01  0.5670779E+03  0.1570796E+01  0.7136357E-12  0.1009031E+01
  0.5480000E+01  0.2776843E+04 -0.1570796E+01  0.8023915E-03 -0.3139847E+01  0.4728690E+03  0.2324028E-09  0.3018710E-03  0.3140554E+01  0.5647194E+03  0.1570796E+01  0.9325180E-12  0.1708383E+01
  0.5520000E+01  0.2777583E+04 -0.1570796E+01  0.5818494E-03  0.6197659E-02  0.4576644E+03  0.1306436E-08  0.1653753E-04  0.1367150E-01  0.5622178E+03  0.1570796E+01  0.4840043E-12 -0.1629552E+01
  0.5560000E+01  0.2777700E+04 -0.1570796E+01  0.7917327E-03  0.3256030E-02  0.4428106E+03  0.9355066E-08  0.2448308E-03 -0.3141439E+01  0.5595760E+03  0.1570796E+01  0.5028816E-12 -0.1977543E+01
  0.5600000E+01  0.2777189E+04 -0.1570796E+01  0.9186153E-03 -0.3138884E+01  0.4283065E+03 -0.1604730E-08  0.4751182E-03 -0.3141536E+01  0.5567927E+03  0.1570796E+01  0.1281013E-11  0.1451257E+01
  0.5640000E+01  0.2776054E+04 -0.1570796E+01  0.1697474E-02  0.6583827E-03  0.4141469E+03  0.1918654E-07  0.2495620E-03 -0.2479847E-02  0.5538750E+03  0.1570796E+01  0.4398053E-12 -0.1741257E+01
  0.5680000E+01  0.2774297E+04 -0.1570796E+01  0.2939008E-03  0.1368979E-01  0.4003288E+03 -0.1898803E-07  0.5932278E-04 -0.1124520E-02  0.5508221E+03  0.1570796E+01  0.1051987E-11  0.1543776E+01
  0.5720000E+01  0.2771923E+04 -0.1570796E+01  0.1742018E-03  0.2061652E-01  0.3868488E+03 -0.9668356E-08  0.2616111E-03 -0.3138483E+01  0.5476387E+03  0.1570796E+01  0.1291747E-11  0.1711527E+01
  0.5760000E+01  0.2768933E+04 -0.1570796E+01  0.1072893E-02  0.3139773E+01  0.3737034E+03  0.9260805E-08  0.3322268E-03  0.7130718E-03  0.5443263E+03  0.1570796E+01  0.3472403E-12  0.1226396E+01
  0.5800000E+01  0.2765324E+04 -0.1570796E+01  0.9531161E-04 -0.1094391E-02  0.3608881E+03  0.3519995E-08  0.3603068E-03  0.3140753E+01  0.5408879E+03  0.1570796E+01  0.3542218E-12 -0.7783061E+00
  0.5840000E+01  0.2761103E+04 -0.1570796E+01  0.4949683E-03 -0.3140960E+01  0.3483992E+03  0.2234751E-08  0.1144279E-03 -0.3140378E+01  0.5373262E+03  0.1570796E+01  0.3274332E-12  0.1630508E+01
  0.5880000E+01  0.2756276E+04 -0.1570796E+01  0.1168941E-02  0.8285926E-03  0.3362332E+03  0.5872126E-09  0.1019145E-03 -0.3767755E-03  0.5336445E+03  0.1570796E+01  0.2772027E-12  0.2563541E-01
  0.5920000E+01  0.2750840E+04 -0.1570796E+01  0.4420765E-03  0.6741440E-04  0.3243853E+03  0.1045058E-07  0.1386005E-03 -0.3140648E+01  0.5298453E+03  0.1570796E+01  0.1961487E-12  0.1360968E+01
  0.5960000E+01  0.2744800E+04 -0.1570796E+01  0.1339067E-02  0.3139167E+01  0.3128508E+03  0.3721113E-08  0.1341265E-03  0.3141225E+01  0.5259312E+03  0.1570796E+01  0.4701980E-12  0.1259798E+01
  0.6000000E+01  0.2738157E+04 -0.1570796E+01  0.5279394E-03  0.2991869E-02  0.3016266E+03  0.3964565E-08  0.9068090E-04 -0.3136991E+01  0.5219059E+03  0.1570796E+01  0.4122105E-12 -0.1549248E+01
  0.6039999E+01  0.2730927E+04 -0.1570796E+01  0.4311769E-03  0.1693405E-02  0.2907069E+03 -0.1164206E-07  0.6913586E-05 -0.3141418E+01  0.5177721E+03  0.1570796E+01  0.2089769E-12 -0.1881795E+01