VARIABLES="w (rad/s)"
"abs(F   1   1)" "angle(F   1   1)"
"abs(F   1   2)" "angle(F   1   2)"
"abs(F   1   3)" "angle(F   1   3)"
"abs(F   1   4)" "angle(F   1   4)"
"abs(F   1   5)" "angle(F   1   5)"
"abs(F   1   6)" "angle(F   1   6)"
Zone t="FKforce - beta =   0.000",I=    50,F=POINT
  0.1000000E+00  0.7725105E+04 -0.1570795E+01  0.1562521E-01 -0.5157425E-02  0.7539767E+06 -0.1669614E-09  0.1219238E+01 -0.4536694E-04  0.2406879E+05 -0.1570786E+01  0.2461607E-03 -0.3013393E+01
  0.1387755E+00  0.1480751E+05 -0.1570806E+01  0.6036378E-01 -0.5292593E-03  0.7468878E+06 -0.1021491E-10  0.1084961E+01 -0.2953420E-03  0.4620800E+05 -0.1570803E+01  0.1469457E-02 -0.3062332E+01
  0.1775510E+00  0.2408743E+05 -0.1570796E+01  0.4077148E-01  0.2572979E-03  0.7375931E+06  0.4137455E-10  0.2490236E+00 -0.1102941E-02  0.7532423E+05 -0.1570787E+01  0.1963172E-02 -0.3040377E+01
  0.2163265E+00  0.3548040E+05 -0.1570797E+01  0.9009093E-01  0.3133378E+01  0.7261710E+06 -0.2731647E-09  0.7861388E-01  0.3137711E+01  0.1112410E+06 -0.1570798E+01  0.7979285E-03 -0.4080305E+00
  0.2551020E+00  0.4888325E+05 -0.1570796E+01  0.1217652E+00 -0.7675437E-03  0.7127184E+06 -0.1027646E-08  0.2158691E+01 -0.9189097E-04  0.1537422E+06 -0.1570798E+01  0.8056872E-03  0.2221873E+01
  0.2938775E+00  0.6417539E+05 -0.1570795E+01  0.8679417E-01 -0.7076183E-02  0.6973483E+06 -0.8752463E-10  0.6079102E+00  0.3141342E+01  0.2025729E+06 -0.1570798E+01  0.1506298E-02 -0.2351510E+00
  0.3326530E+00  0.8122005E+05 -0.1570795E+01  0.3332598E-01 -0.6868024E-02  0.6801879E+06 -0.4486639E-10  0.5715824E-01  0.3204031E-01  0.2574434E+06 -0.1570798E+01  0.1747781E-02 -0.2110933E+00
  0.3714286E+00  0.9986635E+05 -0.1570796E+01  0.2705525E-01 -0.3511536E-01  0.6613769E+06  0.4614249E-09  0.1285663E+01 -0.3136204E+01  0.3180297E+06 -0.1570796E+01  0.5529074E-03  0.4883339E+00
  0.4102041E+00  0.1199510E+06 -0.1570797E+01  0.4411453E-02 -0.2889903E+01  0.6410672E+06 -0.1904173E-09  0.9252931E+00  0.3141131E+01  0.3839785E+06 -0.1570797E+01  0.2207626E-02  0.3044675E+01
  0.4489796E+00  0.1412993E+06 -0.1570796E+01  0.1528985E+00 -0.3133160E+01  0.6194196E+06 -0.1970721E-09  0.3100595E+00  0.3139230E+01  0.4549075E+06 -0.1570796E+01  0.5270360E-03 -0.2755710E+01
  0.4877551E+00  0.1637288E+06 -0.1570797E+01  0.8636511E-01  0.2915186E-02  0.5966020E+06  0.5115232E-09  0.3518935E-01 -0.3098217E+01  0.5304103E+06 -0.1570796E+01  0.1128016E-02  0.5241796E+00
  0.5265306E+00  0.1870501E+06 -0.1570796E+01  0.5946666E-02  0.2875453E+01  0.5727884E+06 -0.2983623E-08  0.1374025E+01 -0.3140349E+01  0.6100591E+06 -0.1570796E+01  0.2722058E-02  0.2798569E+01
  0.5653061E+00  0.2110685E+06 -0.1570796E+01  0.1200836E-01  0.1672377E+00  0.5481549E+06  0.3117703E-08  0.2078126E+01 -0.3140594E+01  0.6934068E+06 -0.1570797E+01  0.1831055E-02  0.2214298E+01
  0.6040816E+00  0.2355887E+06 -0.1570796E+01  0.4484303E-01 -0.3097684E+01  0.5228794E+06 -0.3735326E-08  0.5717776E+00 -0.1067463E-02  0.7799909E+06 -0.1570797E+01  0.2105713E-02 -0.1570796E+01
  0.6428572E+00  0.2604135E+06 -0.1570796E+01  0.3747737E-01 -0.9771676E-02  0.4971382E+06  0.2455460E-09  0.1001003E+00  0.7316943E-02  0.8693351E+06 -0.1570796E+01  0.6171798E-03  0.2992703E+01
  0.6816327E+00  0.2853478E+06 -0.1570796E+01  0.4086394E-01  0.3102375E+01  0.4711059E+06 -0.5959630E-08  0.1417330E-01 -0.3098516E+01  0.9609556E+06 -0.1570797E+01  0.6103516E-03  0.1570796E+01
  0.7204082E+00  0.3102002E+06 -0.1570796E+01  0.5774073E-01  0.7135185E-02  0.4449512E+06 -0.2743454E-08  0.2941427E+01  0.3137837E+01  0.1054356E+07 -0.1570796E+01  0.1371594E-02 -0.1007480E+01
  0.7591837E+00  0.3347845E+06 -0.1570796E+01  0.1306785E+00  0.3135754E+01  0.4188372E+06  0.4080307E-08  0.4768349E+00 -0.3130712E+01  0.1149039E+07 -0.1570796E+01  0.2210787E-02 -0.1681454E+01
  0.7979592E+00  0.3589206E+06 -0.1570797E+01  0.5748467E-01  0.1013062E+00  0.3929184E+06  0.6213519E-09  0.5986328E+00 -0.3058728E-03  0.1244503E+07 -0.1570796E+01  0.1258272E-02 -0.1969319E+01
  0.8367347E+00  0.3824388E+06 -0.1570796E+01  0.1536826E-02  0.1194289E+00  0.3673400E+06  0.8972338E-08  0.1178468E+01  0.1294799E-02  0.1340243E+07 -0.1570796E+01  0.9296598E-03 -0.1165905E+01
  0.8755102E+00  0.4051770E+06 -0.1570796E+01  0.5468138E-01  0.9333786E-01  0.3422367E+06  0.4636890E-08  0.7558793E+00  0.7267314E-02  0.1435756E+07 -0.1570796E+01  0.7425247E-03 -0.1405648E+01
  0.9142857E+00  0.4269848E+06 -0.1570796E+01  0.4641154E-01 -0.3011692E+01  0.3177315E+06  0.5378705E-08  0.1622810E+01  0.3084088E-02  0.1530545E+07 -0.1570796E+01  0.1244878E-02  0.1768192E+01
  0.9530612E+00  0.4477235E+06 -0.1570796E+01  0.2684279E-01  0.2002941E+00  0.2939348E+06  0.1661189E-08  0.3897560E+00  0.3118101E+01  0.1624113E+07 -0.1570796E+01  0.1863322E-02 -0.1019141E+01
  0.9918368E+00  0.4672671E+06 -0.1570796E+01  0.9465370E-02  0.2779048E+01  0.2709443E+06 -0.1802146E-08  0.1066930E+01 -0.3133469E+01  0.1715963E+07 -0.1570796E+01  0.5200897E-02 -0.1500325E+01
  0.1030612E+01  0.4855014E+06 -0.1570796E+01  0.1845685E-01  0.3015597E+01  0.2488439E+06 -0.1422594E-07  0.7781609E+00  0.3107545E+01  0.1805618E+07 -0.1570796E+01  0.2013235E-02  0.1325818E+01
  0.1069388E+01  0.5023273E+06 -0.1570796E+01  0.7211776E-02  0.3498556E+00  0.2277041E+06 -0.7505285E-08  0.7204590E+00  0.0000000E+00  0.1892597E+07 -0.1570796E+01  0.1835119E-02  0.6656817E-01
  0.1108163E+01  0.5176564E+06 -0.1570796E+01  0.1883083E-01  0.2990299E+01  0.2075819E+06 -0.1411341E-07  0.4479203E+00  0.2725606E-01  0.1976434E+07 -0.1570796E+01  0.3860202E-03  0.1892547E+01
  0.1146939E+01  0.5314167E+06 -0.1570796E+01  0.2810270E-02  0.1527345E+01  0.1885208E+06  0.1554040E-07  0.5667902E-01  0.2875718E+01  0.2056670E+07 -0.1570796E+01  0.1591602E-02  0.1494024E+01
  0.1185714E+01  0.5435461E+06 -0.1570796E+01  0.9183958E-01  0.4753569E-01  0.1705516E+06 -0.1216755E-07  0.2428366E+00 -0.3093316E+01  0.2132854E+07 -0.1570796E+01  0.2504673E-02  0.7509291E+00
  0.1224490E+01  0.5539982E+06 -0.1570796E+01  0.3027030E-01  0.3032494E+01  0.1536928E+06 -0.3971245E-08  0.1754202E+00 -0.3133938E+01  0.2204560E+07 -0.1570796E+01  0.2729575E-03  0.2677945E+01
  0.1263265E+01  0.5627362E+06 -0.1570796E+01  0.1078994E-01 -0.7773983E+00  0.1379507E+06 -0.5309301E-08  0.6195549E-01  0.7790525E-01  0.2271361E+07 -0.1570796E+01  0.2783631E-02  0.2231839E+01
  0.1302041E+01  0.5697366E+06 -0.1570796E+01  0.1777069E-01 -0.2530726E+01  0.1233217E+06 -0.1088838E-07  0.7796112E+00  0.4853951E-02  0.2332858E+07 -0.1570796E+01  0.1220703E-03 -0.1570796E+01
  0.1340816E+01  0.5749868E+06 -0.1570796E+01  0.2649912E-01 -0.1107844E+00  0.1097915E+06 -0.8894700E-08  0.4449731E-01  0.3088072E+01  0.2388652E+07 -0.1570796E+01  0.1726335E-02  0.1428899E+01
  0.1379592E+01  0.5784829E+06 -0.1570796E+01  0.3985203E-02  0.4602230E+00  0.9733743E+05 -0.6270471E-08  0.5819765E+00 -0.4826153E-01  0.2438384E+07 -0.1570796E+01  0.4816753E-02 -0.1723446E+01
  0.1418367E+01  0.5802328E+06 -0.1570796E+01  0.1383143E-01 -0.3022164E+01  0.8592879E+05  0.2130898E-07  0.1625515E+00 -0.3128075E+01  0.2481698E+07 -0.1570796E+01  0.1696953E-02  0.2228685E+01
  0.1457143E+01  0.5802515E+06 -0.1570796E+01  0.1440481E-02 -0.2506566E+01  0.7552813E+05  0.0000000E+00  0.4669629E+00 -0.3134012E+01  0.2518271E+07 -0.1570796E+01  0.2076093E-02  0.1541393E+01
  0.1495918E+01  0.5785616E+06 -0.1570796E+01  0.1983708E-01  0.2360237E+00  0.6609234E+05 -0.1015831E-07  0.1193706E+00 -0.1981476E+00  0.2547796E+07 -0.1570796E+01  0.1628621E-02 -0.1343997E+01
  0.1534694E+01  0.5751942E+06 -0.1570796E+01  0.1004395E-01  0.2781399E+01  0.5757383E+05  0.1166132E-07  0.3826998E+00 -0.3134575E+01  0.2570001E+07 -0.1570796E+01  0.1896024E-02  0.9917220E+00
  0.1573469E+01  0.5701851E+06 -0.1570796E+01  0.5526673E-01  0.6631105E-01  0.4992132E+05 -0.7335762E-08  0.1002838E+01  0.3141227E+01  0.2584632E+07 -0.1570796E+01  0.7980449E-02  0.1463517E+01
  0.1612245E+01  0.5635779E+06 -0.1570796E+01  0.2311341E-02  0.1886284E+01  0.4308107E+05 -0.4250253E-08  0.1015994E+01  0.3127985E+01  0.2591482E+07 -0.1570796E+01  0.1351415E-02  0.1683947E+01
  0.1651020E+01  0.5554199E+06 -0.1570796E+01  0.5600620E-02  0.2872815E+00  0.3699777E+05  0.1649699E-07  0.3689195E+00  0.3342572E-01  0.2590362E+07 -0.1570796E+01  0.3412651E-02  0.1833127E+01
  0.1689796E+01  0.5457641E+06 -0.1570796E+01  0.2147756E-01  0.5402067E-01  0.3161537E+05  0.9652767E-08  0.1009028E+00 -0.2969868E+01  0.2581132E+07 -0.1570796E+01  0.6573687E-03  0.1951303E+01
  0.1728571E+01  0.5346659E+06 -0.1570796E+01  0.1091408E-01 -0.1016050E+01  0.2687785E+05 -0.2270834E-08  0.7053287E-01 -0.4216949E+00  0.2563680E+07 -0.1570796E+01  0.5373716E-02 -0.1602036E+01
  0.1767347E+01  0.5221867E+06 -0.1570796E+01  0.5202488E-02 -0.1496119E+01  0.2272999E+05 -0.4430622E-07  0.3711171E-01 -0.1079329E+00  0.2537946E+07 -0.1570796E+01  0.2462844E-02 -0.1438757E+01
  0.1806122E+01  0.5083902E+06 -0.1570796E+01  0.2519179E-02  0.8496871E+00  0.1911793E+05 -0.5586980E-07  0.8211585E-01 -0.2992383E+01  0.2503908E+07 -0.1570796E+01  0.6958046E-02 -0.1574086E+01
  0.1844898E+01  0.4933441E+06 -0.1570796E+01  0.2661501E-01 -0.3781642E+00  0.1598975E+05  0.3817142E-08  0.2831744E+00  0.3133240E+01  0.2461594E+07 -0.1570796E+01  0.3786671E-02 -0.1534522E+01
  0.1883674E+01  0.4771190E+06 -0.1570796E+01  0.1575843E-01  0.3083462E+01  0.1329579E+05 -0.1377169E-07  0.6642839E-01  0.3107820E+01  0.2411077E+07 -0.1570796E+01  0.4409763E-02 -0.1653938E+01
  0.1922449E+01  0.4597888E+06 -0.1570796E+01  0.1294078E-01 -0.2697984E+01  0.1098912E+05 -0.5554145E-08  0.2036765E+00 -0.1445944E-01  0.2352485E+07 -0.1570796E+01  0.5982146E-02  0.1586101E+01
  0.1961224E+01  0.4414307E+06 -0.1570796E+01  0.6861842E-02 -0.1258891E+01  0.9025655E+04 -0.1234139E-06  0.3095912E+00 -0.9190150E-01  0.2285991E+07 -0.1570796E+01  0.3431566E-02  0.1481747E+01
  0.2000000E+01  0.4221244E+06 -0.1570796E+01  0.1044473E-01  0.2770853E+01  0.7364456E+04  0.4351096E-07  0.8129109E-02 -0.2384237E+01  0.2211832E+07 -0.1570796E+01  0.2210787E-02 -0.1460139E+01
Zone t="FKforce - beta =  51.429",I=    50,F=POINT
  0.1000000E+00  0.4816524E+04 -0.1570823E+01  0.6039730E+04 -0.1570780E+01  0.7539766E+06 -0.1011888E-10  0.1881773E+05  0.1570740E+01  0.1500664E+05 -0.1570792E+01  0.4882822E-03  0.3139640E+01
  0.1387755E+00  0.9232327E+04 -0.1570796E+01  0.1157698E+05 -0.1570789E+01  0.7468878E+06  0.1225790E-09  0.3612691E+05  0.1570833E+01  0.2881021E+05 -0.1570797E+01  0.1710288E-02  0.3102550E+01
  0.1775510E+00  0.1501827E+05 -0.1570798E+01  0.1883231E+05 -0.1570795E+01  0.7375932E+06  0.1034363E-09  0.5889083E+05  0.1570796E+01  0.4696388E+05 -0.1570804E+01  0.1269531E-01  0.3141142E+01
  0.2163265E+00  0.2212168E+05 -0.1570798E+01  0.2773969E+05 -0.1570799E+01  0.7261712E+06  0.3782279E-09  0.8697177E+05  0.1570810E+01  0.6935762E+05 -0.1570798E+01  0.2452112E-03 -0.3048116E+01
  0.2551020E+00  0.3047822E+05 -0.1570796E+01  0.3821845E+05 -0.1570795E+01  0.7127186E+06 -0.3425484E-09  0.1202004E+06  0.1570782E+01  0.9585663E+05 -0.1570798E+01  0.5378308E-02  0.5180021E-01
  0.2938775E+00  0.4001267E+05 -0.1570796E+01  0.5017430E+05 -0.1570796E+01  0.6973484E+06 -0.8752462E-09  0.1583778E+06  0.1570796E+01  0.1263022E+06 -0.1570795E+01  0.5127770E-02 -0.3123737E+01
  0.3326530E+00  0.5063990E+05 -0.1570796E+01  0.6350041E+05 -0.1570797E+01  0.6801879E+06  0.2243320E-09  0.2012773E+06  0.1570799E+01  0.1605133E+06 -0.1570799E+01  0.1229280E-02 -0.1181965E+00
  0.3714286E+00  0.6226570E+05 -0.1570796E+01  0.7807872E+05 -0.1570795E+01  0.6613769E+06 -0.1430417E-08  0.2486458E+06  0.1570796E+01  0.1982882E+06 -0.1570797E+01  0.8301131E-02  0.9190918E-02
  0.4102041E+00  0.7478818E+05 -0.1570796E+01  0.9378140E+05 -0.1570794E+01  0.6410672E+06 -0.9520867E-09  0.3002065E+06  0.1570798E+01  0.2394065E+06 -0.1570798E+01  0.1294176E-01 -0.1886569E-01
  0.4489796E+00  0.8809870E+05 -0.1570796E+01  0.1104722E+06 -0.1570796E+01  0.6194196E+06 -0.2956081E-09  0.3556606E+06  0.1570801E+01  0.2836298E+06 -0.1570797E+01  0.1476243E-02  0.3017238E+01
  0.4877551E+00  0.1020832E+06 -0.1570797E+01  0.1280083E+06 -0.1570796E+01  0.5966021E+06 -0.1023046E-08  0.4146908E+06  0.1570798E+01  0.3307052E+06 -0.1570797E+01  0.3698675E-02  0.1407302E+00
  0.5265306E+00  0.1166237E+06 -0.1570796E+01  0.1462414E+06 -0.1570796E+01  0.5727884E+06 -0.3729528E-08  0.4769634E+06  0.1570799E+01  0.3803652E+06 -0.1570796E+01  0.1126178E-01 -0.7458963E-01
  0.5653061E+00  0.1315991E+06 -0.1570797E+01  0.1650201E+06 -0.1570796E+01  0.5481549E+06 -0.1224812E-08  0.5421272E+06  0.1570796E+01  0.4323321E+06 -0.1570797E+01  0.8139674E-02  0.1429575E+00
  0.6040816E+00  0.1468872E+06 -0.1570796E+01  0.1841907E+06 -0.1570796E+01  0.5228792E+06  0.1867664E-08  0.6098213E+06  0.1570798E+01  0.4863165E+06 -0.1570796E+01  0.3243489E-02  0.3455556E+00
  0.6428572E+00  0.1623652E+06 -0.1570796E+01  0.2035995E+06 -0.1570797E+01  0.4971383E+06 -0.8594109E-08  0.6796741E+06  0.1570798E+01  0.5420219E+06 -0.1570796E+01  0.8558861E-02  0.5708078E-01
  0.6816327E+00  0.1779115E+06 -0.1570796E+01  0.2230939E+06 -0.1570797E+01  0.4711058E+06 -0.2332030E-08  0.7513048E+06  0.1570797E+01  0.5991459E+06 -0.1570796E+01  0.8424234E-02 -0.3123479E+01
  0.7204082E+00  0.1934067E+06 -0.1570797E+01  0.2425242E+06 -0.1570796E+01  0.4449513E+06 -0.7956014E-08  0.8243297E+06  0.1570795E+01  0.6573802E+06 -0.1570796E+01  0.1564454E-02  0.2782822E+01
  0.7591837E+00  0.2087346E+06 -0.1570796E+01  0.2617449E+06 -0.1570796E+01  0.4188372E+06  0.9034965E-08  0.8983556E+06  0.1570796E+01  0.7164141E+06 -0.1570796E+01  0.2549634E-02 -0.8362018E+00
  0.7979592E+00  0.2237833E+06 -0.1570796E+01  0.2806157E+06 -0.1570796E+01  0.3929184E+06  0.4970816E-08  0.9729916E+06  0.1570796E+01  0.7759348E+06 -0.1570797E+01  0.8010501E-03 -0.1261093E+01
  0.8367347E+00  0.2384466E+06 -0.1570796E+01  0.2990027E+06 -0.1570796E+01  0.3673399E+06 -0.5649250E-08  0.1047843E+07  0.1570796E+01  0.8356278E+06 -0.1570796E+01  0.8145850E-02  0.3359676E+00
  0.8755102E+00  0.2526236E+06 -0.1570796E+01  0.3167804E+06 -0.1570796E+01  0.3422366E+06 -0.6776995E-08  0.1122520E+07  0.1570795E+01  0.8951801E+06 -0.1570796E+01  0.3320672E-02 -0.2199593E+01
  0.9142857E+00  0.2662206E+06 -0.1570796E+01  0.3338302E+06 -0.1570796E+01  0.3177314E+06 -0.2689354E-08  0.1196629E+07  0.1570796E+01  0.9542792E+06 -0.1570796E+01  0.4678654E-02 -0.2639637E+00
  0.9530612E+00  0.2791510E+06 -0.1570796E+01  0.3500446E+06 -0.1570796E+01  0.2939348E+06 -0.5398864E-08  0.1269781E+07  0.1570796E+01  0.1012617E+07 -0.1570796E+01  0.4774807E-02 -0.7677189E-01
  0.9918368E+00  0.2913362E+06 -0.1570796E+01  0.3653241E+06 -0.1570796E+01  0.2709442E+06 -0.1802147E-08  0.1341595E+07  0.1570797E+01  0.1069886E+07 -0.1570796E+01  0.1080460E-01 -0.1075381E+00
  0.1030612E+01  0.3027055E+06 -0.1570796E+01  0.3795806E+06 -0.1570796E+01  0.2488439E+06 -0.6377146E-08  0.1411690E+07  0.1570796E+01  0.1125784E+07 -0.1570796E+01  0.1011417E-01 -0.2731946E+01
  0.1069388E+01  0.3131960E+06 -0.1570796E+01  0.3927352E+06 -0.1570796E+01  0.2277041E+06  0.1501057E-07  0.1479692E+07  0.1570796E+01  0.1180015E+07 -0.1570796E+01  0.3186129E-02  0.6358384E+00
  0.1108163E+01  0.3227536E+06 -0.1570796E+01  0.4047204E+06 -0.1570796E+01  0.2075819E+06  0.2352234E-08  0.1545238E+07  0.1570796E+01  0.1232286E+07 -0.1570796E+01  0.4209214E-02 -0.2847358E+01
  0.1146939E+01  0.3313327E+06 -0.1570796E+01  0.4154782E+06 -0.1570796E+01  0.1885208E+06  0.3885098E-08  0.1607968E+07  0.1570796E+01  0.1282311E+07 -0.1570796E+01  0.5197673E-02  0.2976444E+01
  0.1185714E+01  0.3388954E+06 -0.1570796E+01  0.4249617E+06 -0.1570796E+01  0.1705515E+06  0.1932494E-07  0.1667534E+07  0.1570796E+01  0.1329813E+07 -0.1570796E+01  0.1803380E-02  0.1152572E+01
  0.1224490E+01  0.3454122E+06 -0.1570796E+01  0.4331331E+06 -0.1570796E+01  0.1536927E+06  0.2382748E-08  0.1723594E+07  0.1570796E+01  0.1374521E+07 -0.1570796E+01  0.6029828E-02 -0.3729877E+00
  0.1263265E+01  0.3508602E+06 -0.1570796E+01  0.4399650E+06 -0.1570796E+01  0.1379507E+06 -0.7963950E-08  0.1775821E+07  0.1570796E+01  0.1416169E+07 -0.1570796E+01  0.4157565E-02 -0.5875582E-01
  0.1302041E+01  0.3552253E+06 -0.1570796E+01  0.4454382E+06 -0.1570796E+01  0.1233217E+06 -0.1583765E-07  0.1823899E+07  0.1570796E+01  0.1454512E+07 -0.1570796E+01  0.5173247E-02 -0.3366748E+00
  0.1340816E+01  0.3584982E+06 -0.1570796E+01  0.4495428E+06 -0.1570796E+01  0.1097915E+06 -0.1723348E-07  0.1867524E+07  0.1570796E+01  0.1489300E+07 -0.1570796E+01  0.4424944E-02  0.2714965E+01
  0.1379592E+01  0.3606783E+06 -0.1570796E+01  0.4522763E+06 -0.1570796E+01  0.9733747E+05  0.1693027E-07  0.1906406E+07  0.1570796E+01  0.1520308E+07 -0.1570796E+01  0.4711977E-02 -0.2852617E+01
  0.1418367E+01  0.3617694E+06 -0.1570796E+01  0.4536443E+06 -0.1570796E+01  0.8592876E+05  0.1420599E-07  0.1940271E+07  0.1570797E+01  0.1547313E+07 -0.1570796E+01  0.6368749E-02 -0.2124320E+00
  0.1457143E+01  0.3617808E+06 -0.1570796E+01  0.4536589E+06 -0.1570796E+01  0.7552812E+05 -0.1697035E-07  0.1968864E+07  0.1570796E+01  0.1570116E+07 -0.1570796E+01  0.4799708E-02  0.1275096E+00
  0.1495918E+01  0.3607272E+06 -0.1570796E+01  0.4523375E+06 -0.1570796E+01  0.6609235E+05 -0.2216359E-07  0.1991947E+07  0.1570796E+01  0.1588525E+07 -0.1570796E+01  0.8101827E-02 -0.5378355E+00
  0.1534694E+01  0.3586275E+06 -0.1570796E+01  0.4497048E+06 -0.1570796E+01  0.5757384E+05 -0.4028454E-07  0.2009307E+07  0.1570796E+01  0.1602368E+07 -0.1570796E+01  0.8631675E-03 -0.1712693E+01
  0.1573469E+01  0.3555045E+06 -0.1570796E+01  0.4457886E+06 -0.1570796E+01  0.4992131E+05 -0.2812043E-07  0.2020748E+07  0.1570796E+01  0.1611491E+07 -0.1570796E+01  0.6123016E-02 -0.4101273E+00
  0.1612245E+01  0.3513853E+06 -0.1570796E+01  0.4406230E+06 -0.1570796E+01  0.4308107E+05 -0.8500506E-08  0.2026102E+07  0.1570796E+01  0.1615762E+07 -0.1570796E+01  0.1946438E-02 -0.2289626E+01
  0.1651020E+01  0.3462987E+06 -0.1570796E+01  0.4342448E+06 -0.1570796E+01  0.3699777E+05 -0.1649698E-08  0.2025227E+07  0.1570796E+01  0.1615064E+07 -0.1570796E+01  0.4748206E-02  0.8035780E+00
  0.1689796E+01  0.3402781E+06 -0.1570796E+01  0.4266952E+06 -0.1570796E+01  0.3161536E+05  0.4826386E-08  0.2018009E+07  0.1570796E+01  0.1609309E+07 -0.1570796E+01  0.2423027E-02  0.7140907E+00
  0.1728571E+01  0.3333586E+06 -0.1570796E+01  0.4180184E+06 -0.1570796E+01  0.2687785E+05 -0.3179169E-07  0.2004366E+07  0.1570796E+01  0.1598428E+07 -0.1570796E+01  0.4283346E-02  0.7148086E+00
  0.1767347E+01  0.3255779E+06 -0.1570796E+01  0.4082620E+06 -0.1570796E+01  0.2273000E+05  0.1342612E-07  0.1984246E+07  0.1570796E+01  0.1582383E+07 -0.1570796E+01  0.4118403E-02 -0.8798531E+00
  0.1806122E+01  0.3169763E+06 -0.1570796E+01  0.3974756E+06 -0.1570796E+01  0.1911794E+05  0.1915536E-07  0.1957635E+07  0.1570796E+01  0.1561162E+07 -0.1570796E+01  0.2566381E-02 -0.1128422E+01
  0.1844898E+01  0.3075951E+06 -0.1570796E+01  0.3857121E+06 -0.1570796E+01  0.1598974E+05 -0.5725716E-07  0.1924552E+07  0.1570796E+01  0.1534779E+07 -0.1570796E+01  0.4121681E-02  0.2962096E-01
  0.1883674E+01  0.2974790E+06 -0.1570796E+01  0.3730268E+06 -0.1570796E+01  0.1329579E+05 -0.6426786E-07  0.1885056E+07  0.1570796E+01  0.1503283E+07 -0.1570796E+01  0.1251221E-02  0.1792111E+01
  0.1922449E+01  0.2866738E+06 -0.1570796E+01  0.3594774E+06 -0.1570796E+01  0.1098912E+05 -0.5831852E-07  0.1839246E+07  0.1570796E+01  0.1466750E+07 -0.1570796E+01  0.4846437E-02  0.1009218E+00
  0.1961224E+01  0.2752273E+06 -0.1570796E+01  0.3451242E+06 -0.1570796E+01  0.9025655E+04  0.5917106E-07  0.1787259E+07  0.1570796E+01  0.1425292E+07 -0.1570796E+01  0.7363848E-03  0.1467004E+01
  0.2000000E+01  0.2631903E+06 -0.1570796E+01  0.3300300E+06 -0.1570796E+01  0.7364457E+04 -0.6215851E-07  0.1729281E+07  0.1570796E+01  0.1379055E+07 -0.1570796E+01  0.4654912E-02  0.5215856E+00
Zone t="FKforce - beta = 102.857",I=    50,F=POINT
  0.1000000E+00  0.1718997E+04  0.1570776E+01  0.7531421E+04 -0.1570786E+01  0.7539768E+06 -0.3921063E-10  0.2346534E+05  0.1570806E+01  0.5355807E+04  0.1570818E+01  0.4394753E-02  0.3131542E+01
  0.1387755E+00  0.3294979E+04  0.1570800E+01  0.1443625E+05 -0.1570814E+01  0.7468877E+06 -0.1685461E-09  0.4504950E+05  0.1570786E+01  0.1028225E+05  0.1570826E+01  0.9277607E-02  0.7536093E-02
  0.1775510E+00  0.5359958E+04  0.1570796E+01  0.2348352E+05 -0.1570799E+01  0.7375932E+06  0.1823066E-09  0.7343570E+05  0.1570790E+01  0.1676122E+05  0.1570807E+01  0.7326053E-03  0.3119217E+01
  0.2163265E+00  0.7895140E+04  0.1570798E+01  0.3459082E+05 -0.1570794E+01  0.7261712E+06 -0.2127532E-09  0.1084520E+06  0.1570796E+01  0.2475347E+05  0.1570779E+01  0.3906358E-02 -0.7446151E-02
  0.2551020E+00  0.1087756E+05  0.1570793E+01  0.4765766E+05 -0.1570796E+01  0.7127186E+06 -0.1177510E-09  0.1498876E+06  0.1570796E+01  0.3421085E+05  0.1570801E+01  0.5371746E-02 -0.1557935E-01
  0.2938775E+00  0.1428037E+05  0.1570790E+01  0.6256635E+05 -0.1570796E+01  0.6973485E+06  0.1586384E-09  0.1974940E+06  0.1570795E+01  0.4507671E+05  0.1570798E+01  0.2686651E-02  0.3112925E+01
  0.3326530E+00  0.1807317E+05  0.1570800E+01  0.7918373E+05 -0.1570796E+01  0.6801881E+06  0.8300281E-09  0.2509886E+06  0.1570802E+01  0.5728651E+05  0.1570798E+01  0.1709649E-02  0.2789455E-01
  0.3714286E+00  0.2222238E+05  0.1570798E+01  0.9736256E+05 -0.1570796E+01  0.6613767E+06  0.1349668E-08  0.3100563E+06  0.1570798E+01  0.7076833E+05  0.1570796E+01  0.1076146E-01  0.5985385E-01
  0.4102041E+00  0.2669159E+05  0.1570795E+01  0.1169434E+06 -0.1570796E+01  0.6410671E+06 -0.5950543E-09  0.3743513E+06  0.1570798E+01  0.8544320E+05  0.1570796E+01  0.5749444E-02 -0.2925101E+01
  0.4489796E+00  0.3144205E+05  0.1570798E+01  0.1377566E+06 -0.1570796E+01  0.6194196E+06  0.3288641E-08  0.4435019E+06  0.1570798E+01  0.1012263E+06  0.1570800E+01  0.8807085E-02 -0.3077607E+01
  0.4877551E+00  0.3643306E+05  0.1570797E+01  0.1596237E+06 -0.1570796E+01  0.5966023E+06  0.4220064E-09  0.5171115E+06  0.1570795E+01  0.1180274E+06  0.1570795E+01  0.6845211E-02 -0.3089533E+01
  0.5265306E+00  0.4162251E+05  0.1570796E+01  0.1823601E+06 -0.1570797E+01  0.5727884E+06 -0.4022562E-08  0.5947637E+06  0.1570796E+01  0.1357509E+06  0.1570796E+01  0.1074749E-01 -0.3141722E-01
  0.5653061E+00  0.4696720E+05  0.1570799E+01  0.2057767E+06 -0.1570796E+01  0.5481549E+06 -0.2867174E-08  0.6760212E+06  0.1570798E+01  0.1542975E+06  0.1570797E+01  0.3821547E-02 -0.2444362E+01
  0.6040816E+00  0.5242341E+05  0.1570795E+01  0.2296820E+06 -0.1570796E+01  0.5228793E+06  0.1386156E-08  0.7604346E+06  0.1570795E+01  0.1735642E+06  0.1570798E+01  0.4944587E-02 -0.2983356E+01
  0.6428572E+00  0.5794747E+05  0.1570794E+01  0.2538845E+06 -0.1570796E+01  0.4971381E+06 -0.4788149E-08  0.8475394E+06  0.1570796E+01  0.1934454E+06  0.1570797E+01  0.3377066E-02 -0.2490184E+01
  0.6816327E+00  0.6349588E+05  0.1570796E+01  0.2781937E+06 -0.1570796E+01  0.4711059E+06 -0.4275388E-08  0.9368618E+06  0.1570796E+01  0.2138327E+06  0.1570797E+01  0.3963015E-02 -0.2675362E+01
  0.7204082E+00  0.6902604E+05  0.1570798E+01  0.3024229E+06 -0.1570796E+01  0.4449513E+06 -0.4835337E-08  0.1027921E+07  0.1570798E+01  0.2346161E+06  0.1570796E+01  0.6310208E-02  0.2589017E+01
  0.7591837E+00  0.7449650E+05  0.1570797E+01  0.3263907E+06 -0.1570796E+01  0.4188372E+06  0.3606700E-08  0.1120230E+07  0.1570797E+01  0.2556853E+06  0.1570796E+01  0.8711165E-02 -0.2945915E+01
  0.7979592E+00  0.7986738E+05  0.1570797E+01  0.3499218E+06 -0.1570796E+01  0.3929183E+06 -0.8504757E-08  0.1213300E+07  0.1570797E+01  0.2769277E+06  0.1570796E+01  0.7677265E-02 -0.2787940E+01
  0.8367347E+00  0.8510066E+05  0.1570797E+01  0.3728502E+06 -0.1570796E+01  0.3673399E+06 -0.3240012E-08  0.1306640E+07  0.1570796E+01  0.2982321E+06  0.1570796E+01  0.8431572E-02  0.4548491E-01
  0.8755102E+00  0.9016038E+05  0.1570796E+01  0.3950184E+06 -0.1570796E+01  0.3422367E+06  0.5796112E-09  0.1399759E+07  0.1570796E+01  0.3194859E+06  0.1570796E+01  0.3920323E-02  0.8475740E-01
  0.9142857E+00  0.9501310E+05  0.1570797E+01  0.4162792E+06 -0.1570796E+01  0.3177314E+06 -0.5906973E-08  0.1492171E+07  0.1570796E+01  0.3405785E+06  0.1570797E+01  0.3176102E-02  0.3103750E+01
  0.9530612E+00  0.9962788E+05  0.1570797E+01  0.4364984E+06 -0.1570796E+01  0.2939349E+06 -0.5035478E-08  0.1583390E+07  0.1570796E+01  0.3613987E+06  0.1570798E+01  0.5663890E-02 -0.4389464E+00
  0.9918368E+00  0.1039768E+06  0.1570796E+01  0.4555516E+06 -0.1570796E+01  0.2709442E+06 -0.1148869E-07  0.1672940E+07  0.1570797E+01  0.3818378E+06  0.1570796E+01  0.6003690E-02 -0.2197027E+00
  0.1030612E+01  0.1080342E+06  0.1570796E+01  0.4733293E+06 -0.1570797E+01  0.2488439E+06  0.5763959E-08  0.1760348E+07  0.1570796E+01  0.4017883E+06  0.1570796E+01  0.8130873E-02  0.2466559E+01
  0.1069388E+01  0.1117783E+06  0.1570796E+01  0.4897331E+06 -0.1570796E+01  0.2277041E+06  0.4020690E-09  0.1845147E+07  0.1570797E+01  0.4211426E+06  0.1570796E+01  0.9343068E-02  0.1186830E+00
  0.1108163E+01  0.1151895E+06  0.1570797E+01  0.5046781E+06 -0.1570796E+01  0.2075819E+06  0.1102610E-08  0.1926881E+07  0.1570796E+01  0.4397976E+06  0.1570796E+01  0.3927221E-02 -0.2626663E+01
  0.1146939E+01  0.1182512E+06  0.1570796E+01  0.5180931E+06 -0.1570796E+01  0.1885208E+06 -0.8174895E-08  0.2005103E+07  0.1570796E+01  0.4576518E+06  0.1570796E+01  0.7206157E-02  0.3335627E-01
  0.1185714E+01  0.1209504E+06  0.1570796E+01  0.5299187E+06 -0.1570796E+01  0.1705516E+06  0.2862953E-08  0.2079380E+07  0.1570796E+01  0.4746045E+06  0.1570797E+01  0.1727990E-02 -0.1484533E+00
  0.1224490E+01  0.1232761E+06  0.1570796E+01  0.5401082E+06 -0.1570796E+01  0.1536927E+06 -0.1201302E-07  0.2149286E+07  0.1570797E+01  0.4905605E+06  0.1570796E+01  0.3936281E-02 -0.1886111E+01
  0.1263265E+01  0.1252205E+06  0.1570797E+01  0.5486268E+06 -0.1570796E+01  0.1379507E+06  0.1769767E-07  0.2214414E+07  0.1570796E+01  0.5054256E+06  0.1570796E+01  0.5396199E-02  0.1151424E+01
  0.1302041E+01  0.1267783E+06  0.1570796E+01  0.5554526E+06 -0.1570796E+01  0.1233217E+06  0.1546645E-07  0.2274364E+07  0.1570796E+01  0.5191091E+06  0.1570796E+01  0.4606918E-02  0.1247213E+01
  0.1340816E+01  0.1279467E+06  0.1570796E+01  0.5605710E+06 -0.1570796E+01  0.1097915E+06  0.2307063E-07  0.2328762E+07  0.1570796E+01  0.5315253E+06  0.1570796E+01  0.9820534E-02 -0.2257428E+01
  0.1379592E+01  0.1287247E+06  0.1570796E+01  0.5639792E+06 -0.1570796E+01  0.9733750E+05 -0.1928169E-07  0.2377247E+07  0.1570796E+01  0.5425909E+06  0.1570796E+01  0.2028763E-02  0.4451468E+00
  0.1418367E+01  0.1291140E+06  0.1570796E+01  0.5656853E+06 -0.1570796E+01  0.8592880E+05  0.9482494E-07  0.2419478E+07  0.1570796E+01  0.5522298E+06  0.1570797E+01  0.2258314E-02  0.1788732E+01
  0.1457143E+01  0.1291180E+06  0.1570797E+01  0.5657035E+06 -0.1570796E+01  0.7552814E+05 -0.3858732E-07  0.2455131E+07  0.1570796E+01  0.5603682E+06  0.1570796E+01  0.4332233E-02  0.2975286E+01
  0.1495918E+01  0.1287420E+06  0.1570796E+01  0.5640557E+06 -0.1570796E+01  0.6609235E+05 -0.2331794E-07  0.2483918E+07  0.1570796E+01  0.5669381E+06  0.1570797E+01  0.1805900E-02 -0.3290985E+00
  0.1534694E+01  0.1279926E+06  0.1570796E+01  0.5607724E+06 -0.1570796E+01  0.5757384E+05  0.1258892E-07  0.2505566E+07  0.1570796E+01  0.5718789E+06  0.1570796E+01  0.6241278E-02  0.2438403E+01
  0.1573469E+01  0.1268782E+06  0.1570796E+01  0.5558894E+06 -0.1570796E+01  0.4992130E+05 -0.7106522E-07  0.2519829E+07  0.1570796E+01  0.5751352E+06  0.1570796E+01  0.2658633E-02 -0.1662755E+01
  0.1612245E+01  0.1254079E+06  0.1570796E+01  0.5494482E+06 -0.1570796E+01  0.4308108E+05  0.8854693E-09  0.2526506E+07  0.1570796E+01  0.5766592E+06  0.1570796E+01  0.3227514E-02 -0.1341871E+01
  0.1651020E+01  0.1235926E+06  0.1570796E+01  0.5414946E+06 -0.1570796E+01  0.3699776E+05  0.4907853E-07  0.2525416E+07  0.1570796E+01  0.5764101E+06  0.1570796E+01  0.2349271E-02 -0.2981783E+01
  0.1689796E+01  0.1214439E+06  0.1570796E+01  0.5320804E+06 -0.1570796E+01  0.3161536E+05  0.2171873E-08  0.2516416E+07  0.1570796E+01  0.5743554E+06  0.1570796E+01  0.4429177E-02  0.1937228E+01
  0.1728571E+01  0.1189744E+06  0.1570796E+01  0.5212608E+06 -0.1570796E+01  0.2687785E+05  0.1845053E-07  0.2499403E+07  0.1570796E+01  0.5704727E+06  0.1570796E+01  0.2082419E-02 -0.2351013E+01
  0.1767347E+01  0.1161974E+06  0.1570796E+01  0.5090944E+06 -0.1570796E+01  0.2273000E+05  0.4950883E-07  0.2474313E+07  0.1570796E+01  0.5647466E+06  0.1570797E+01  0.1159732E-01 -0.1581322E+01
  0.1806122E+01  0.1131274E+06  0.1570796E+01  0.4956440E+06 -0.1570796E+01  0.1911793E+05 -0.1995350E-09  0.2441131E+07  0.1570796E+01  0.5571724E+06  0.1570796E+01  0.3205154E-02 -0.1052831E+01
  0.1844898E+01  0.1097794E+06  0.1570796E+01  0.4809752E+06 -0.1570796E+01  0.1598975E+05 -0.2314143E-07  0.2399875E+07  0.1570796E+01  0.5477563E+06  0.1570796E+01  0.3208884E-02  0.1479494E+00
  0.1883674E+01  0.1061690E+06  0.1570796E+01  0.4651567E+06 -0.1570796E+01  0.1329579E+05  0.1778842E-07  0.2350625E+07  0.1570796E+01  0.5365149E+06  0.1570796E+01  0.1916118E-02  0.2842508E+01
  0.1922449E+01  0.1023127E+06  0.1570796E+01  0.4482610E+06 -0.1570796E+01  0.1098912E+05  0.3471340E-09  0.2293503E+07  0.1570796E+01  0.5234766E+06  0.1570796E+01  0.2421597E-02  0.1520366E+01
  0.1961224E+01  0.9822753E+05  0.1570796E+01  0.4303630E+06 -0.1570796E+01  0.9025656E+04 -0.1056626E-07  0.2228677E+07  0.1570796E+01  0.5086814E+06  0.1570796E+01  0.3398576E-02  0.6596649E+00
  0.2000000E+01  0.9393163E+05  0.1570796E+01  0.4115409E+06 -0.1570796E+01  0.7364457E+04 -0.3107925E-08  0.2156378E+07  0.1570796E+01  0.4921792E+06  0.1570796E+01  0.1678467E-02  0.6435011E+00
Zone t="FKforce - beta = 154.286",I=    50,F=POINT