 VARIABLES="Time (s)"
"AddedMass    1" "IRF    1"
"AddedMass    2" "IRF    2"
"AddedMass    3" "IRF    3"
"AddedMass    4" "IRF    4"
"AddedMass    5" "IRF    5"
"AddedMass    6" "IRF    6"
Zone t="DoF    1",I=   100,F=POINT
  0.1000000E+00  0.4213464E+06  0.3294043E+06  0.2710600E-03 -0.2294794E-03  0.1113462E-02  0.8169395E-03  0.1640989E-02 -0.1263758E-02  0.1139184E+07  0.1432435E+07  0.7859670E-03 -0.6954436E-03
  0.2000000E+00  0.4213464E+06  0.3183657E+06  0.2710600E-03 -0.2186811E-03  0.1113462E-02  0.7892271E-03  0.1640989E-02 -0.1194979E-02  0.1139184E+07  0.1382438E+07  0.7859670E-03 -0.6658005E-03
  0.3000000E+00  0.4213464E+06  0.3002822E+06  0.2710600E-03 -0.2011078E-03  0.1113462E-02  0.7438347E-03  0.1640989E-02 -0.1083065E-02  0.1139184E+07  0.1300576E+07  0.7859670E-03 -0.6174069E-03
  0.4000000E+00  0.4213464E+06  0.2756156E+06  0.2710600E-03 -0.1773789E-03  0.1113462E-02  0.6819308E-03  0.1640989E-02 -0.9319902E-03  0.1139184E+07  0.1189005E+07  0.7859670E-03 -0.5517453E-03
  0.5000000E+00  0.4213464E+06  0.2449943E+06  0.2710600E-03 -0.1483297E-03  0.1113462E-02  0.6051047E-03  0.1640989E-02 -0.7471192E-03  0.1139184E+07  0.1050656E+07  0.7859670E-03 -0.4708244E-03
  0.6000000E+00  0.4213464E+06  0.2091953E+06  0.2710600E-03 -0.1149807E-03  0.1113462E-02  0.5153217E-03  0.1640989E-02 -0.5350151E-03  0.1139184E+07  0.8891494E+06  0.7859670E-03 -0.3771130E-03
  0.7000000E+00  0.4213464E+06  0.1691226E+06  0.2710600E-03 -0.7850048E-04  0.1113462E-02  0.4148677E-03  0.1640989E-02 -0.3032051E-03  0.1139184E+07  0.7086918E+06  0.7859670E-03 -0.2734608E-03
  0.8000000E+00  0.4213464E+06  0.1257818E+06  0.2710600E-03 -0.4016303E-04  0.1113462E-02  0.3062844E-03  0.1640989E-02 -0.5991185E-04  0.1139184E+07  0.5139568E+06  0.7859670E-03 -0.1630064E-03
  0.9000000E+00  0.4213464E+06  0.8025228E+05  0.2710600E-03 -0.1300857E-05  0.1113462E-02  0.1922987E-03  0.1640989E-02  0.1862394E-03  0.1139184E+07  0.3099510E+06  0.7859670E-03 -0.4907729E-04
  0.1000000E+01  0.4213464E+06  0.3365723E+05  0.2710600E-03  0.3674322E-04  0.1113462E-02  0.7574607E-04  0.1640989E-02  0.4265269E-03  0.1139184E+07  0.1018721E+06  0.7859670E-03  0.6491776E-04
  0.1100000E+01  0.4213464E+06 -0.1286712E+05  0.2710600E-03  0.7266543E-04  0.1113462E-02 -0.4050825E-04  0.1640989E-02  0.6524456E-03  0.1139184E+07 -0.1050371E+06  0.7859670E-03  0.1755967E-03
  0.1200000E+01  0.4213464E+06 -0.5820232E+05  0.2710600E-03  0.1052483E-03  0.1113462E-02 -0.1536484E-03  0.1640989E-02  0.8560075E-03  0.1139184E+07 -0.3056340E+06  0.7859670E-03  0.2797109E-03
  0.1300000E+01  0.4213464E+06 -0.1012779E+06  0.2710600E-03  0.1334054E-03  0.1113462E-02 -0.2609846E-03  0.1640989E-02  0.1030026E-02  0.1139184E+07 -0.4950190E+06  0.7859670E-03  0.3742479E-03
  0.1400000E+01  0.4213464E+06 -0.1410994E+06  0.2710600E-03  0.1562203E-03  0.1113462E-02 -0.3600269E-03  0.1640989E-02  0.1168372E-02  0.1139184E+07 -0.6686672E+06  0.7859670E-03  0.4565247E-03
  0.1500000E+01  0.4213464E+06 -0.1767746E+06  0.2710600E-03  0.1729803E-03  0.1113462E-02 -0.4485513E-03  0.1640989E-02  0.1266189E-02  0.1139184E+07 -0.8225511E+06  0.7859670E-03  0.5242702E-03
  0.1600000E+01  0.4213464E+06 -0.2075356E+06  0.2710600E-03  0.1832018E-03  0.1113462E-02 -0.5246584E-03  0.1640989E-02  0.1320067E-02  0.1139184E+07 -0.9532419E+06  0.7859670E-03  0.5756930E-03
  0.1700000E+01  0.4213464E+06 -0.2327578E+06  0.2710600E-03  0.1866476E-03  0.1113462E-02 -0.5868219E-03  0.1640989E-02  0.1328158E-02  0.1139184E+07 -0.1057999E+07  0.7859670E-03  0.6095339E-03
  0.1800000E+01  0.4213464E+06 -0.2519742E+06  0.2710600E-03  0.1833354E-03  0.1113462E-02 -0.6339259E-03  0.1640989E-02  0.1290242E-02  0.1139184E+07 -0.1134831E+07  0.7859670E-03  0.6250996E-03
  0.1900000E+01  0.4213464E+06 -0.2648843E+06  0.2710600E-03  0.1735360E-03  0.1113462E-02 -0.6652903E-03  0.1640989E-02  0.1207732E-02  0.1139184E+07 -0.1182538E+07  0.7859670E-03  0.6222780E-03
  0.2000000E+01  0.4213464E+06 -0.2713598E+06  0.2710600E-03  0.1577627E-03  0.1113462E-02 -0.6806835E-03  0.1640989E-02  0.1083619E-02  0.1139184E+07 -0.1200733E+07  0.7859670E-03  0.6015341E-03
  0.2100000E+01  0.4213464E+06 -0.2714431E+06  0.2710600E-03  0.1367519E-03  0.1113462E-02 -0.6803205E-03  0.1640989E-02  0.9223636E-03  0.1139184E+07 -0.1189827E+07  0.7859670E-03  0.5638875E-03
  0.2200000E+01  0.4213464E+06 -0.2653427E+06  0.2710600E-03  0.1114352E-03  0.1113462E-02 -0.6648509E-03  0.1640989E-02  0.7297324E-03  0.1139184E+07 -0.1151009E+07  0.7859670E-03  0.5108714E-03
  0.2300000E+01  0.4213464E+06 -0.2534228E+06  0.2710600E-03  0.8290401E-04  0.1113462E-02 -0.6353318E-03  0.1640989E-02  0.5125885E-03  0.1139184E+07 -0.1086187E+07  0.7859670E-03  0.4444750E-03
  0.2400000E+01  0.4213464E+06 -0.2361895E+06  0.2710600E-03  0.5236790E-04  0.1113462E-02 -0.5931902E-03  0.1640989E-02  0.2786437E-03  0.1139184E+07 -0.9979184E+06  0.7859670E-03  0.3670723E-03
  0.2500000E+01  0.4213464E+06 -0.2142724E+06  0.2710600E-03  0.2110975E-04  0.1113462E-02 -0.5401761E-03  0.1640989E-02  0.3618276E-04  0.1139184E+07 -0.8893218E+06  0.7859670E-03  0.2813391E-03
  0.2600000E+01  0.4213464E+06 -0.1884034E+06  0.2710600E-03 -0.9563671E-05  0.1113462E-02 -0.4783050E-03  0.1640989E-02 -0.2062388E-03  0.1139184E+07 -0.7639689E+06  0.7859670E-03  0.1901594E-03
  0.2700000E+01  0.4213464E+06 -0.1593940E+06  0.2710600E-03 -0.3837055E-04  0.1113462E-02 -0.4097946E-03  0.1640989E-02 -0.4400998E-03  0.1139184E+07 -0.6257738E+06  0.7859670E-03  0.9652968E-04
  0.2800000E+01  0.4213464E+06 -0.1281089E+06  0.2710600E-03 -0.6410372E-04  0.1113462E-02 -0.3369961E-03  0.1640989E-02 -0.6572214E-03  0.1139184E+07 -0.4788672E+06  0.7859670E-03  0.3456150E-05
  0.2900000E+01  0.4213464E+06 -0.9544045E+05  0.2710600E-03 -0.8567646E-04  0.1113462E-02 -0.2623227E-03  0.1640989E-02 -0.8500585E-03  0.1139184E+07 -0.3274713E+06  0.7859670E-03 -0.8614298E-04
  0.3000000E+01  0.4213464E+06 -0.6228294E+05  0.2710600E-03 -0.1021645E-03  0.1113462E-02 -0.1881763E-03  0.1640989E-02 -0.1011970E-02  0.1139184E+07 -0.1757767E+06  0.7859670E-03 -0.1695313E-03
  0.3100000E+01  0.4213464E+06 -0.2950630E+05  0.2710600E-03 -0.1128426E-03  0.1113462E-02 -0.1168774E-03  0.1640989E-02 -0.1137459E-02  0.1139184E+07 -0.2781838E+05  0.7859670E-03 -0.2442439E-03
  0.3200000E+01  0.4213464E+06  0.2067114E+04  0.2710600E-03 -0.1172135E-03  0.1113462E-02 -0.5059570E-04  0.1640989E-02 -0.1222361E-02  0.1139184E+07  0.1126339E+06  0.7859670E-03 -0.3081613E-03
  0.3300000E+01  0.4213464E+06  0.3168460E+05  0.2710600E-03 -0.1150288E-03  0.1113462E-02  0.8711145E-05  0.1640989E-02 -0.1264000E-02  0.1139184E+07  0.2421789E+06  0.7859670E-03 -0.3595748E-03
  0.3400000E+01  0.4213464E+06  0.5868212E+05  0.2710600E-03 -0.1063004E-03  0.1113462E-02  0.5935525E-04  0.1640989E-02 -0.1261276E-02  0.1139184E+07  0.3578706E+06  0.7859670E-03 -0.3972356E-03
  0.3500000E+01  0.4213464E+06  0.8249948E+05  0.2710600E-03 -0.9130355E-04  0.1113462E-02  0.9996331E-04  0.1640989E-02 -0.1214702E-02  0.1139184E+07  0.4572870E+06  0.7859670E-03 -0.4203858E-03
  0.3600000E+01  0.4213464E+06  0.1026929E+06  0.2710600E-03 -0.7056847E-04  0.1113462E-02  0.1295151E-03  0.1640989E-02 -0.1126383E-02  0.1139184E+07  0.5385842E+06  0.7859670E-03 -0.4287752E-03
  0.3700000E+01  0.4213464E+06  0.1189426E+06  0.2710600E-03 -0.4486470E-04  0.1113462E-02  0.1473706E-03  0.1640989E-02 -0.9999372E-03  0.1139184E+07  0.6005277E+06  0.7859670E-03 -0.4226578E-03
  0.3800000E+01  0.4213464E+06  0.1310571E+06  0.2710600E-03 -0.1517405E-04  0.1113462E-02  0.1532836E-03  0.1640989E-02 -0.8403581E-03  0.1139184E+07  0.6425051E+06  0.7859670E-03 -0.4027739E-03
  0.3900000E+01  0.4213464E+06  0.1389727E+06  0.2710600E-03  0.1734208E-04  0.1113462E-02  0.1474071E-03  0.1640989E-02 -0.6538319E-03  0.1139184E+07  0.6645199E+06  0.7859670E-03 -0.3703125E-03
  0.4000000E+01  0.4213464E+06  0.1427498E+06  0.2710600E-03  0.5138352E-04  0.1113462E-02  0.1302834E-03  0.1640989E-02 -0.4475096E-03  0.1139184E+07  0.6671640E+06  0.7859670E-03 -0.3268628E-03
  0.4100000E+01  0.4213464E+06  0.1425654E+06  0.2710600E-03  0.8555760E-04  0.1113462E-02  0.1028260E-03  0.1640989E-02 -0.2292448E-03  0.1139184E+07  0.6515748E+06  0.7859670E-03 -0.2743490E-03
  0.4200000E+01  0.4213464E+06  0.1387014E+06  0.2710600E-03  0.1184290E-03  0.1113462E-02  0.6628914E-04  0.1640989E-02 -0.7302970E-05  0.1139184E+07  0.6193761E+06  0.7859670E-03 -0.2149574E-03
  0.4300000E+01  0.4213464E+06  0.1315315E+06  0.2710600E-03  0.1485713E-03  0.1113462E-02  0.2223061E-04  0.1640989E-02  0.2099375E-03  0.1139184E+07  0.5726051E+06  0.7859670E-03 -0.1510554E-03
  0.4400000E+01  0.4213464E+06  0.1215049E+06  0.2710600E-03  0.1746194E-03  0.1113462E-02 -0.2753924E-04  0.1640989E-02  0.4142998E-03  0.1139184E+07  0.5136306E+06  0.7859670E-03 -0.8510408E-04
  0.4500000E+01  0.4213464E+06  0.1091280E+06  0.2710600E-03  0.1953207E-03  0.1113462E-02 -0.8100759E-04  0.1640989E-02  0.5981070E-03  0.1139184E+07  0.4450616E+06  0.7859670E-03 -0.1957097E-04
  0.4600000E+01  0.4213464E+06  0.9494638E+05  0.2710600E-03  0.2095813E-03  0.1113462E-02 -0.1360211E-03  0.1640989E-02  0.7544606E-03  0.1139184E+07  0.3696545E+06  0.7859670E-03  0.4315765E-04
  0.4700000E+01  0.4213464E+06  0.7952489E+05  0.2710600E-03  0.2165092E-03  0.1113462E-02 -0.1903467E-03  0.1640989E-02  0.8775084E-03  0.1139184E+07  0.2902151E+06  0.7859670E-03  0.1008579E-03
  0.4800000E+01  0.4213464E+06  0.6342918E+05  0.2710600E-03  0.2154492E-03  0.1113462E-02 -0.2417361E-03  0.1640989E-02  0.9626468E-03  0.1139184E+07  0.2095099E+06  0.7859670E-03  0.1515439E-03
  0.4900000E+01  0.4213464E+06  0.4720703E+05  0.2710600E-03  0.2060112E-03  0.1113462E-02 -0.2879901E-03  0.1640989E-02  0.1006710E-02  0.1139184E+07  0.1301747E+06  0.7859670E-03  0.1935337E-03
  0.5000000E+01  0.4213464E+06  0.3137195E+05  0.2710600E-03  0.1880889E-03  0.1113462E-02 -0.3270190E-03  0.1640989E-02  0.1008082E-02  0.1139184E+07  0.5463573E+05  0.7859670E-03  0.2255021E-03
  0.5100000E+01  0.4213464E+06  0.1638830E+05  0.2710600E-03  0.1618700E-03  0.1113462E-02 -0.3569004E-03  0.1640989E-02  0.9667623E-03  0.1139184E+07 -0.1495881E+05  0.7859670E-03  0.2465216E-03
  0.5200000E+01  0.4213464E+06  0.2658892E+04  0.2710600E-03  0.1278344E-03  0.1113462E-02 -0.3759344E-03  0.1640989E-02  0.8843807E-03  0.1139184E+07 -0.7679652E+05  0.7859670E-03  0.2560874E-03
  0.5300000E+01  0.4213464E+06 -0.9484743E+04  0.2710600E-03  0.8674488E-04  0.1113462E-02 -0.3826866E-03  0.1640989E-02  0.7641370E-03  0.1139184E+07 -0.1294436E+06  0.7859670E-03  0.2541269E-03
  0.5400000E+01  0.4213464E+06 -0.1978944E+05  0.2710600E-03  0.3962662E-04  0.1113462E-02 -0.3760295E-03  0.1640989E-02  0.6106966E-03  0.1139184E+07 -0.1718741E+06  0.7859670E-03  0.2409953E-03
  0.5500000E+01  0.4213464E+06 -0.2808415E+05  0.2710600E-03 -0.1226225E-04  0.1113462E-02 -0.3551703E-03  0.1640989E-02  0.4300261E-03  0.1139184E+07 -0.2034822E+06  0.7859670E-03  0.2174544E-03
  0.5600000E+01  0.4213464E+06 -0.3428083E+05  0.2710600E-03 -0.6746707E-04  0.1113462E-02 -0.3196741E-03  0.1640989E-02  0.2291842E-03  0.1139184E+07 -0.2240808E+06  0.7859670E-03  0.1846380E-03
  0.5700000E+01  0.4213464E+06 -0.3837243E+05  0.2710600E-03 -0.1243820E-03  0.1113462E-02 -0.2694745E-03  0.1640989E-02  0.1606625E-04  0.1139184E+07 -0.2338861E+06  0.7859670E-03  0.1440044E-03
  0.5800000E+01  0.4213464E+06 -0.4042798E+05  0.2710600E-03 -0.1812973E-03  0.1113462E-02 -0.2048764E-03  0.1640989E-02 -0.2008756E-03  0.1139184E+07 -0.2334858E+06  0.7859670E-03  0.9727979E-04
  0.5900000E+01  0.4213464E+06 -0.4058583E+05  0.2710600E-03 -0.2364556E-03  0.1113462E-02 -0.1265504E-03  0.1640989E-02 -0.4129389E-03  0.1139184E+07 -0.2238008E+06  0.7859670E-03  0.4638976E-04
  0.6000000E+01  0.4213464E+06 -0.3904370E+05  0.2710600E-03 -0.2881045E-03  0.1113462E-02 -0.3551348E-04  0.1640989E-02 -0.6114900E-03  0.1139184E+07 -0.2060309E+06  0.7859670E-03 -0.6611912E-05
  0.6100000E+01  0.4213464E+06 -0.3604823E+05  0.2710600E-03 -0.3345541E-03  0.1113462E-02  0.6689018E-04  0.1640989E-02 -0.7882788E-03  0.1139184E+07 -0.1815980E+06  0.7859670E-03 -0.5962068E-04
  0.6200000E+01  0.4213464E+06 -0.3188274E+05  0.2710600E-03 -0.3742297E-03  0.1113462E-02  0.1790232E-03  0.1640989E-02 -0.9357431E-03  0.1139184E+07 -0.1520812E+06  0.7859670E-03 -0.1105557E-03
  0.6300000E+01  0.4213464E+06 -0.2685412E+05  0.2710600E-03 -0.4057225E-03  0.1113462E-02  0.2989903E-03  0.1640989E-02 -0.1047298E-02  0.1139184E+07 -0.1191493E+06  0.7859670E-03 -0.1574366E-03
  0.6400000E+01  0.4213464E+06 -0.2127987E+05  0.2710600E-03 -0.4278366E-03  0.1113462E-02  0.4246831E-03  0.1640989E-02 -0.1117578E-02  0.1139184E+07 -0.8449442E+05  0.7859670E-03 -0.1984520E-03
  0.6500000E+01  0.4213464E+06 -0.1547533E+05  0.2710600E-03 -0.4396260E-03  0.1113462E-02  0.5538241E-03  0.1640989E-02 -0.1142664E-02  0.1139184E+07 -0.4976581E+05  0.7859670E-03 -0.2320231E-03
  0.6600000E+01  0.4213464E+06 -0.9741373E+04  0.2710600E-03 -0.4404284E-03  0.1113462E-02  0.6840165E-03  0.1640989E-02 -0.1120217E-02  0.1139184E+07 -0.1651009E+05  0.7859670E-03 -0.2568563E-03
  0.6700000E+01  0.4213464E+06 -0.4353534E+04  0.2710600E-03 -0.4298858E-03  0.1113462E-02  0.8127955E-03  0.1640989E-02 -0.1049617E-02  0.1139184E+07  0.1388356E+05  0.7859670E-03 -0.2719866E-03
  0.6800000E+01  0.4213464E+06  0.4474498E+03  0.2710600E-03 -0.4079602E-03  0.1113462E-02  0.9376754E-03  0.1640989E-02 -0.9319863E-03  0.1139184E+07  0.4022876E+05  0.7859670E-03 -0.2768076E-03
  0.6900000E+01  0.4213464E+06  0.4463488E+04  0.2710600E-03 -0.3749350E-03  0.1113462E-02  0.1056205E-02  0.1640989E-02 -0.7701898E-03  0.1139184E+07  0.6157887E+05  0.7859670E-03 -0.2710886E-03
  0.7000000E+01  0.4213464E+06  0.7544676E+04  0.2710600E-03 -0.3314107E-03  0.1113462E-02  0.1166009E-02  0.1640989E-02 -0.5687515E-03  0.1139184E+07  0.7725202E+05  0.7859670E-03 -0.2549773E-03
  0.7100000E+01  0.4213464E+06  0.9593015E+04  0.2710600E-03 -0.2782884E-03  0.1113462E-02  0.1264837E-02  0.1640989E-02 -0.3337304E-03  0.1139184E+07  0.8684613E+05  0.7859670E-03 -0.2289913E-03
  0.7200000E+01  0.4213464E+06  0.1056365E+05  0.2710600E-03 -0.2167441E-03  0.1113462E-02  0.1350602E-02  0.1640989E-02 -0.7252378E-04  0.1139184E+07  0.9024199E+05  0.7859670E-03 -0.1939940E-03
  0.7300000E+01  0.4213464E+06  0.1046421E+05  0.2710600E-03 -0.1481992E-03  0.1113462E-02  0.1421417E-02  0.1640989E-02  0.2063580E-03  0.1139184E+07  0.8759503E+05  0.7859670E-03 -0.1511612E-03
  0.7400000E+01  0.4213464E+06  0.9351803E+04  0.2710600E-03 -0.7427634E-04  0.1113462E-02  0.1475625E-02  0.1640989E-02  0.4935793E-03  0.1139184E+07  0.7931702E+05  0.7859670E-03 -0.1019344E-03
  0.7500000E+01  0.4213464E+06  0.7328494E+04  0.2710600E-03  0.3243339E-05  0.1113462E-02  0.1511829E-02  0.1640989E-02  0.7792783E-03  0.1139184E+07  0.6604902E+05  0.7859670E-03 -0.4796710E-04
  0.7600000E+01  0.4213464E+06  0.4534949E+04  0.2710600E-03  0.8247131E-04  0.1113462E-02  0.1528909E-02  0.1640989E-02  0.1053405E-02  0.1139184E+07  0.4862536E+05  0.7859670E-03  0.8933709E-05
  0.7700000E+01  0.4213464E+06  0.1142846E+04  0.2710600E-03  0.1614646E-03  0.1113462E-02  0.1526038E-02  0.1640989E-02  0.1306053E-02  0.1139184E+07  0.2803214E+05  0.7859670E-03  0.6687481E-04
  0.7800000E+01  0.4213464E+06 -0.2653752E+04  0.2710600E-03  0.2382773E-03  0.1113462E-02  0.1502689E-02  0.1640989E-02  0.1527802E-02  0.1139184E+07  0.5360721E+04  0.7859670E-03  0.1239414E-03
  0.7900000E+01  0.4213464E+06 -0.6647488E+04  0.2710600E-03  0.3110167E-03  0.1113462E-02  0.1458647E-02  0.1640989E-02  0.1710042E-02  0.1139184E+07 -0.1824128E+05  0.7859670E-03  0.1782648E-03
  0.8000000E+01  0.4213464E+06 -0.1062711E+05  0.2710600E-03  0.3778930E-03  0.1113462E-02  0.1393996E-02  0.1640989E-02  0.1845278E-02  0.1139184E+07 -0.4161893E+05  0.7859670E-03  0.2280859E-03
  0.8100000E+01  0.4213464E+06 -0.1438679E+05  0.2710600E-03  0.4372658E-03  0.1113462E-02  0.1309126E-02  0.1640989E-02  0.1927394E-02  0.1139184E+07 -0.6365925E+05  0.7859670E-03  0.2718128E-03
  0.8200000E+01  0.4213464E+06 -0.1773461E+05  0.2710600E-03  0.4876872E-03  0.1113462E-02  0.1204720E-02  0.1640989E-02  0.1951882E-02  0.1139184E+07 -0.8333457E+05  0.7859670E-03  0.3080720E-03
  0.8300000E+01  0.4213464E+06 -0.2050077E+05  0.2710600E-03  0.5279388E-03  0.1113462E-02  0.1081731E-02  0.1640989E-02  0.1916009E-02  0.1139184E+07 -0.9974483E+05  0.7859670E-03  0.3357550E-03
  0.8400001E+01  0.4213464E+06 -0.2254393E+05  0.2710600E-03  0.5570584E-03  0.1113462E-02  0.9413813E-03  0.1640989E-02  0.1818942E-02  0.1139184E+07 -0.1121495E+06  0.7859670E-03  0.3540455E-03
  0.8500000E+01  0.4213464E+06 -0.2375693E+05  0.2710600E-03  0.5743640E-03  0.1113462E-02  0.7851345E-03  0.1640989E-02  0.1661801E-02  0.1139184E+07 -0.1199957E+06  0.7859670E-03  0.3624467E-03
  0.8600000E+01  0.4213464E+06 -0.2407027E+05  0.2710600E-03  0.5794649E-03  0.1113462E-02  0.6146721E-03  0.1640989E-02  0.1447645E-02  0.1139184E+07 -0.1229350E+06  0.7859670E-03  0.3607889E-03
  0.8700000E+01  0.4213464E+06 -0.2345471E+05  0.2710600E-03  0.5722685E-03  0.1113462E-02  0.4318783E-03  0.1640989E-02  0.1181415E-02  0.1139184E+07 -0.1208349E+06  0.7859670E-03  0.3492291E-03
  0.8800000E+01  0.4213464E+06 -0.2192138E+05  0.2710600E-03  0.5529742E-03  0.1113462E-02  0.2388043E-03  0.1640989E-02  0.8697858E-03  0.1139184E+07 -0.1137781E+06  0.7859670E-03  0.3282397E-03
  0.8900001E+01  0.4213464E+06 -0.1952076E+05  0.2710600E-03  0.5220654E-03  0.1113462E-02  0.3765210E-04  0.1640989E-02  0.5209864E-03  0.1139184E+07 -0.1020548E+06  0.7859670E-03  0.2985838E-03
  0.9000000E+01  0.4213464E+06 -0.1634002E+05  0.2710600E-03  0.4802882E-03  0.1113462E-02 -0.1692557E-03  0.1640989E-02  0.1445645E-03  0.1139184E+07 -0.8614709E+05  0.7859670E-03  0.2612842E-03
  0.9100000E+01  0.4213464E+06 -0.1249860E+05  0.2710600E-03  0.4286274E-03  0.1113462E-02 -0.3795126E-03  0.1640989E-02 -0.2489200E-03  0.1139184E+07 -0.6670536E+05  0.7859670E-03  0.2175814E-03
  0.9200000E+01  0.4213464E+06 -0.8142977E+04  0.2710600E-03  0.3682771E-03  0.1113462E-02 -0.5906404E-03  0.1640989E-02 -0.6481844E-03  0.1139184E+07 -0.4451840E+05  0.7859670E-03  0.1688882E-03
  0.9300000E+01  0.4213464E+06 -0.3440155E+04  0.2710600E-03  0.3006040E-03  0.1113462E-02 -0.8001355E-03  0.1640989E-02 -0.1041599E-02  0.1139184E+07 -0.2047893E+05  0.7859670E-03  0.1167346E-03
  0.9400001E+01  0.4213464E+06  0.1429378E+04  0.2710600E-03  0.2271103E-03  0.1113462E-02 -0.1005485E-02  0.1640989E-02 -0.1417511E-02  0.1139184E+07  0.4454008E+04  0.7859670E-03  0.6271764E-04
  0.9500000E+01  0.4213464E+06  0.6279086E+04  0.2710600E-03  0.1493948E-03  0.1113462E-02 -0.1204202E-02  0.1640989E-02 -0.1764626E-02  0.1139184E+07  0.2929442E+05  0.7859670E-03  0.8442214E-05
  0.9600000E+01  0.4213464E+06  0.1092429E+05  0.2710600E-03  0.6910934E-04  0.1113462E-02 -0.1393860E-02  0.1640989E-02 -0.2072361E-02  0.1139184E+07  0.5307112E+05  0.7859670E-03 -0.4452993E-04
  0.9700000E+01  0.4213464E+06  0.1518941E+05  0.2710600E-03 -0.1207846E-04  0.1113462E-02 -0.1572107E-02  0.1640989E-02 -0.2331153E-02  0.1139184E+07  0.7486504E+05  0.7859670E-03 -0.9473302E-04
  0.9800000E+01  0.4213464E+06  0.1891483E+05  0.2710600E-03 -0.9252704E-04  0.1113462E-02 -0.1736714E-02  0.1640989E-02 -0.2532782E-02  0.1139184E+07  0.9384551E+05  0.7859670E-03 -0.1408425E-03
  0.9900001E+01  0.4213464E+06  0.2196321E+05  0.2710600E-03 -0.1706537E-03  0.1113462E-02 -0.1885590E-02  0.1640989E-02 -0.2670612E-02  0.1139184E+07  0.1093019E+06  0.7859670E-03 -0.1817132E-03
  0.1000000E+02  0.4213464E+06  0.2422463E+05  0.2710600E-03 -0.2449689E-03  0.1113462E-02 -0.2016813E-02  0.1640989E-02 -0.2739809E-02  0.1139184E+07  0.1206704E+06  0.7859670E-03 -0.2164119E-03
Zone t="DoF    2",I=   100,F=POINT
  0.1000000E+00 -0.5717794E-03  0.3150509E-03  0.4213464E+06  0.3294043E+06  0.2062009E-03  0.2824829E-03 -0.1139184E+07 -0.1432434E+07  0.6649055E-03  0.4022302E-02 -0.6005040E-03 -0.2662385E-02
  0.2000000E+00 -0.5717794E-03  0.3093397E-03  0.4213464E+06  0.3183657E+06  0.2062009E-03  0.2780738E-03 -0.1139184E+07 -0.1382438E+07  0.6649055E-03  0.3817567E-02 -0.6005040E-03 -0.2615730E-02
  0.3000000E+00 -0.5717794E-03  0.2998456E-03  0.4213464E+06  0.3002821E+06  0.2062009E-03  0.2707722E-03 -0.1139184E+07 -0.1300576E+07  0.6649055E-03  0.3484043E-02 -0.6005040E-03 -0.2538614E-02
  0.4000000E+00 -0.5717794E-03  0.2866091E-03  0.4213464E+06  0.2756156E+06  0.2062009E-03  0.2606479E-03 -0.1139184E+07 -0.1189005E+07  0.6649055E-03  0.3033006E-02 -0.6005040E-03 -0.2431995E-02
  0.5000000E+00 -0.5717794E-03  0.2696916E-03  0.4213464E+06  0.2449943E+06  0.2062009E-03  0.2477984E-03 -0.1139184E+07 -0.1050656E+07  0.6649055E-03  0.2479697E-02 -0.6005040E-03 -0.2297203E-02
  0.6000000E+00 -0.5717794E-03  0.2491821E-03  0.4213464E+06  0.2091953E+06  0.2062009E-03  0.2323478E-03 -0.1139184E+07 -0.8891493E+06  0.6649055E-03  0.1842801E-02 -0.6005040E-03 -0.2135924E-02
  0.7000000E+00 -0.5717794E-03  0.2252025E-03  0.4213464E+06  0.1691226E+06  0.2062009E-03  0.2144460E-03 -0.1139184E+07 -0.7086917E+06  0.6649055E-03  0.1143809E-02 -0.6005040E-03 -0.1950186E-02
  0.8000000E+00 -0.5717794E-03  0.1979143E-03  0.4213464E+06  0.1257818E+06  0.2062009E-03  0.1942680E-03 -0.1139184E+07 -0.5139568E+06  0.6649055E-03  0.4062797E-03 -0.6005040E-03 -0.1742339E-02
  0.9000000E+00 -0.5717794E-03  0.1675256E-03  0.4213464E+06  0.8025229E+05  0.2062009E-03  0.1720128E-03 -0.1139184E+07 -0.3099510E+06  0.6649055E-03 -0.3449584E-03 -0.6005040E-03 -0.1515032E-02
  0.1000000E+01 -0.5717794E-03  0.1342970E-03  0.4213464E+06  0.3365723E+05  0.2062009E-03  0.1479013E-03 -0.1139184E+07 -0.1018721E+06  0.6649055E-03 -0.1084657E-02 -0.6005040E-03 -0.1271179E-02
  0.1100000E+01 -0.5717794E-03  0.9854660E-04  0.4213464E+06 -0.1286712E+05  0.2062009E-03  0.1221754E-03 -0.1139184E+07  0.1050371E+06  0.6649055E-03 -0.1788006E-02 -0.6005040E-03 -0.1013933E-02
  0.1200000E+01 -0.5717794E-03  0.6065419E-04  0.4213464E+06 -0.5820232E+05  0.2062009E-03  0.9509553E-04 -0.1139184E+07  0.3056340E+06  0.6649055E-03 -0.2431473E-02 -0.6005040E-03 -0.7466463E-03
  0.1300000E+01 -0.5717794E-03  0.2106299E-04  0.4213464E+06 -0.1012779E+06  0.2062009E-03  0.6693871E-04 -0.1139184E+07  0.4950190E+06  0.6649055E-03 -0.2993603E-02 -0.6005040E-03 -0.4728302E-03
  0.1400000E+01 -0.5717794E-03 -0.1972105E-04  0.4213464E+06 -0.1410993E+06  0.2062009E-03  0.3799637E-04 -0.1139184E+07  0.6686672E+06  0.6649055E-03 -0.3455732E-02 -0.6005040E-03 -0.1961112E-03
  0.1500000E+01 -0.5717794E-03 -0.6113184E-04  0.4213464E+06 -0.1767745E+06  0.2062009E-03  0.8571372E-05 -0.1139184E+07  0.8225510E+06  0.6649055E-03 -0.3802622E-02 -0.6005040E-03  0.7981715E-04
  0.1600000E+01 -0.5717794E-03 -0.1025491E-03  0.4213464E+06 -0.2075356E+06  0.2062009E-03 -0.2102468E-04 -0.1139184E+07  0.9532421E+06  0.6649055E-03 -0.4022956E-02 -0.6005040E-03  0.3512447E-03
  0.1700000E+01 -0.5717794E-03 -0.1433064E-03  0.4213464E+06 -0.2327578E+06  0.2062009E-03 -0.5047439E-04 -0.1139184E+07  0.1057999E+07  0.6649055E-03 -0.4109715E-02 -0.6005040E-03  0.6144982E-03
  0.1800000E+01 -0.5717794E-03 -0.1827024E-03  0.4213464E+06 -0.2519742E+06  0.2062009E-03 -0.7945804E-04 -0.1139184E+07  0.1134831E+07  0.6649055E-03 -0.4060389E-02 -0.6005040E-03  0.8659963E-03
  0.1900000E+01 -0.5717794E-03 -0.2200154E-03  0.4213464E+06 -0.2648843E+06  0.2062009E-03 -0.1076568E-03 -0.1139184E+07  0.1182538E+07  0.6649055E-03 -0.3877055E-02 -0.6005040E-03  0.1102305E-02
  0.2000000E+01 -0.5717794E-03 -0.2545179E-03  0.4213464E+06 -0.2713598E+06  0.2062009E-03 -0.1347565E-03 -0.1139184E+07  0.1200732E+07  0.6649055E-03 -0.3566271E-02 -0.6005040E-03  0.1320198E-02
  0.2100000E+01 -0.5717794E-03 -0.2854956E-03  0.4213464E+06 -0.2714431E+06  0.2062009E-03 -0.1604511E-03 -0.1139184E+07  0.1189827E+07  0.6649055E-03 -0.3138840E-02 -0.6005040E-03  0.1516706E-02
  0.2200000E+01 -0.5717794E-03 -0.3122658E-03  0.4213464E+06 -0.2653427E+06  0.2062009E-03 -0.1844460E-03 -0.1139184E+07  0.1151009E+07  0.6649055E-03 -0.2609422E-02 -0.6005040E-03  0.1689173E-02
  0.2300000E+01 -0.5717794E-03 -0.3341972E-03  0.4213464E+06 -0.2534229E+06  0.2062009E-03 -0.2064628E-03 -0.1139184E+07  0.1086187E+07  0.6649055E-03 -0.1996014E-02 -0.6005040E-03  0.1835309E-02
  0.2400000E+01 -0.5717794E-03 -0.3507303E-03  0.4213464E+06 -0.2361895E+06  0.2062009E-03 -0.2262414E-03 -0.1139184E+07  0.9979182E+06  0.6649055E-03 -0.1319318E-02 -0.6005040E-03  0.1953233E-02
  0.2500000E+01 -0.5717794E-03 -0.3613953E-03  0.4213464E+06 -0.2142724E+06  0.2062009E-03 -0.2435447E-03 -0.1139184E+07  0.8893216E+06  0.6649055E-03 -0.6020336E-03 -0.6005040E-03  0.2041515E-02
  0.2600000E+01 -0.5717794E-03 -0.3658311E-03  0.4213464E+06 -0.1884034E+06  0.2062009E-03 -0.2581612E-03 -0.1139184E+07  0.7639687E+06  0.6649055E-03  0.1319328E-03 -0.6005040E-03  0.2099209E-02
  0.2700000E+01 -0.5717794E-03 -0.3637997E-03  0.4213464E+06 -0.1593940E+06  0.2062009E-03 -0.2699082E-03 -0.1139184E+07  0.6257737E+06  0.6649055E-03  0.8582742E-03 -0.6005040E-03  0.2125878E-02
  0.2800000E+01 -0.5717794E-03 -0.3551995E-03  0.4213464E+06 -0.1281089E+06  0.2062009E-03 -0.2786347E-03 -0.1139184E+07  0.4788671E+06  0.6649055E-03  0.1553117E-02 -0.6005040E-03  0.2121617E-02
  0.2900000E+01 -0.5717794E-03 -0.3400740E-03  0.4213464E+06 -0.9544048E+05  0.2062009E-03 -0.2842238E-03 -0.1139184E+07  0.3274712E+06  0.6649055E-03  0.2193815E-02 -0.6005040E-03  0.2087052E-02
  0.3000000E+01 -0.5717794E-03 -0.3186182E-03  0.4213464E+06 -0.6228296E+05  0.2062009E-03 -0.2865944E-03 -0.1139184E+07  0.1757766E+06  0.6649055E-03  0.2759706E-02 -0.6005040E-03  0.2023345E-02
  0.3100000E+01 -0.5717794E-03 -0.2911782E-03  0.4213464E+06 -0.2950632E+05  0.2062009E-03 -0.2857030E-03 -0.1139184E+07  0.2781836E+05  0.6649055E-03  0.3232794E-02 -0.6005040E-03  0.1932178E-02
  0.3200000E+01 -0.5717794E-03 -0.2582493E-03  0.4213464E+06  0.2067099E+04  0.2062009E-03 -0.2815450E-03 -0.1139184E+07 -0.1126339E+06  0.6649055E-03  0.3598325E-02 -0.6005040E-03  0.1815727E-02
  0.3300000E+01 -0.5717794E-03 -0.2204671E-03  0.4213464E+06  0.3168458E+05  0.2062009E-03 -0.2741549E-03 -0.1139184E+07 -0.2421789E+06  0.6649055E-03  0.3845261E-02 -0.6005040E-03  0.1676631E-02
  0.3400000E+01 -0.5717794E-03 -0.1785950E-03  0.4213464E+06  0.5868210E+05  0.2062009E-03 -0.2636065E-03 -0.1139184E+07 -0.3578707E+06  0.6649055E-03  0.3966613E-02 -0.6005040E-03  0.1517940E-02
  0.3500000E+01 -0.5717794E-03 -0.1335079E-03  0.4213464E+06  0.8249945E+05  0.2062009E-03 -0.2500128E-03 -0.1139184E+07 -0.4572870E+06  0.6649055E-03  0.3959630E-02 -0.6005040E-03  0.1343067E-02
  0.3600000E+01 -0.5717794E-03 -0.8617069E-04  0.4213464E+06  0.1026929E+06  0.2062009E-03 -0.2335244E-03 -0.1139184E+07 -0.5385842E+06  0.6649055E-03  0.3825849E-02 -0.6005040E-03  0.1155715E-02
  0.3700000E+01 -0.5717794E-03 -0.3761530E-04  0.4213464E+06  0.1189426E+06  0.2062009E-03 -0.2143284E-03 -0.1139184E+07 -0.6005276E+06  0.6649055E-03  0.3570997E-02 -0.6005040E-03  0.9598103E-03
  0.3800000E+01 -0.5717794E-03  0.1108705E-04  0.4213464E+06  0.1310570E+06  0.2062009E-03 -0.1926459E-03 -0.1139184E+07 -0.6425051E+06  0.6649055E-03  0.3204741E-02 -0.6005040E-03  0.7594178E-03
  0.3900000E+01 -0.5717794E-03  0.5885408E-04  0.4213464E+06  0.1389726E+06  0.2062009E-03 -0.1687301E-03 -0.1139184E+07 -0.6645199E+06  0.6649055E-03  0.2740318E-02 -0.6005040E-03  0.5586553E-03
  0.4000000E+01 -0.5717794E-03  0.1046213E-03  0.4213464E+06  0.1427498E+06  0.2062009E-03 -0.1428632E-03 -0.1139184E+07 -0.6671639E+06  0.6649055E-03  0.2194047E-02 -0.6005040E-03  0.3616113E-03
  0.4100000E+01 -0.5717794E-03  0.1473729E-03  0.4213464E+06  0.1425654E+06  0.2062009E-03 -0.1153520E-03 -0.1139184E+07 -0.6515747E+06  0.6649055E-03  0.1584728E-02 -0.6005040E-03  0.1722490E-03
  0.4200000E+01 -0.5717794E-03  0.1861695E-03  0.4213464E+06  0.1387014E+06  0.2062009E-03 -0.8652543E-04 -0.1139184E+07 -0.6193759E+06  0.6649055E-03  0.9329804E-03 -0.6005040E-03 -0.5680849E-05
  0.4300000E+01 -0.5717794E-03  0.2201750E-03  0.4213464E+06  0.1315315E+06  0.2062009E-03 -0.5673014E-04 -0.1139184E+07 -0.5726050E+06  0.6649055E-03  0.2605262E-03 -0.6005040E-03 -0.1687245E-03
  0.4400000E+01 -0.5717794E-03  0.2486816E-03  0.4213464E+06  0.1215049E+06  0.2062009E-03 -0.2632556E-04 -0.1139184E+07 -0.5136304E+06  0.6649055E-03 -0.4105711E-03 -0.6005040E-03 -0.3138061E-03
  0.4500000E+01 -0.5717794E-03  0.2711292E-03  0.4213464E+06  0.1091280E+06  0.2062009E-03  0.4319780E-05 -0.1139184E+07 -0.4450615E+06  0.6649055E-03 -0.1058645E-02 -0.6005040E-03 -0.4383047E-03
  0.4600000E+01 -0.5717794E-03  0.2871224E-03  0.4213464E+06  0.9494641E+05  0.2062009E-03  0.3483362E-04 -0.1139184E+07 -0.3696543E+06  0.6649055E-03 -0.1663157E-02 -0.6005040E-03 -0.5401137E-03
  0.4700000E+01 -0.5717794E-03  0.2964416E-03  0.4213464E+06  0.7952491E+05  0.2062009E-03  0.6484411E-04 -0.1139184E+07 -0.2902149E+06  0.6649055E-03 -0.2205371E-02 -0.6005040E-03 -0.6176985E-03
  0.4800000E+01 -0.5717794E-03  0.2990484E-03  0.4213464E+06  0.6342918E+05  0.2062009E-03  0.9398461E-04 -0.1139184E+07 -0.2095099E+06  0.6649055E-03 -0.2668938E-02 -0.6005040E-03 -0.6701300E-03
  0.4900000E+01 -0.5717794E-03  0.2950870E-03  0.4213464E+06  0.4720703E+05  0.2062009E-03  0.1218985E-03 -0.1139184E+07 -0.1301746E+06  0.6649055E-03 -0.3040431E-02 -0.6005040E-03 -0.6971197E-03
  0.5000000E+01 -0.5717794E-03  0.2848784E-03  0.4213464E+06  0.3137198E+05  0.2062009E-03  0.1482437E-03 -0.1139184E+07 -0.5463561E+05  0.6649055E-03 -0.3309725E-02 -0.6005040E-03 -0.6990245E-03
  0.5100000E+01 -0.5717794E-03  0.2689096E-03  0.4213464E+06  0.1638833E+05  0.2062009E-03  0.1726968E-03 -0.1139184E+07  0.1495882E+05  0.6649055E-03 -0.3470279E-02 -0.6005040E-03 -0.6768444E-03