 VARIABLES="Time (s)"
"IRF    1"
"IRF    2"
"IRF    3"
"IRF    4"
"IRF    5"
"IRF    6"
Zone t="beta  0.0000000E+00",I=   199,F=POINT
 -0.9800000E+01 -0.1483102E+05 -0.1752034E-02 -0.2032836E+05 -0.3059252E-03 -0.7423759E+05 -0.9083658E-04
 -0.9700000E+01 -0.1616400E+05 -0.2126754E-02 -0.2040546E+05  0.4454079E-02 -0.8173527E+05 -0.8888053E-04
 -0.9600000E+01 -0.1691444E+05 -0.2490652E-02 -0.2047707E+05  0.8290640E-02 -0.8622818E+05 -0.8131719E-04
 -0.9500000E+01 -0.1703839E+05 -0.2834250E-02 -0.2054322E+05  0.1117959E-01 -0.8746135E+05 -0.6835429E-04
 -0.9400001E+01 -0.1651601E+05 -0.3148355E-02 -0.2060409E+05  0.1312806E-01 -0.8530403E+05 -0.5039825E-04
 -0.9300000E+01 -0.1535315E+05 -0.3424310E-02 -0.2066011E+05  0.1417434E-01 -0.7975874E+05 -0.2803776E-04
 -0.9200000E+01 -0.1358184E+05 -0.3654208E-02 -0.2071191E+05  0.1438669E-01 -0.7096456E+05 -0.2022205E-05
 -0.9100000E+01 -0.1125955E+05 -0.3831146E-02 -0.2076020E+05  0.1386116E-01 -0.5919494E+05  0.2676497E-04
 -0.9000000E+01 -0.8467604E+04 -0.3949397E-02 -0.2080597E+05  0.1271844E-01 -0.4485026E+05  0.5733970E-04
 -0.8900001E+01 -0.5308822E+04 -0.4004571E-02 -0.2085027E+05  0.1110012E-01 -0.2844635E+05  0.8864787E-04
 -0.8800000E+01 -0.1903514E+04 -0.3993759E-02 -0.2089414E+05  0.9164087E-02 -0.1059537E+05  0.1196047E-03
 -0.8700000E+01  0.1614269E+04 -0.3915622E-02 -0.2093875E+05  0.7079819E-02  0.8013573E+04  0.1491277E-03
 -0.8600000E+01  0.5102110E+04 -0.3770434E-02 -0.2098520E+05  0.5022741E-02  0.2664149E+05  0.1761747E-03
 -0.8500000E+01  0.8414594E+04 -0.3560084E-02 -0.2103449E+05  0.3168712E-02  0.4452686E+05  0.1997776E-03
 -0.8400001E+01  0.1140893E+05 -0.3288054E-02 -0.2108750E+05  0.1688483E-02  0.6091484E+05  0.2190726E-03
 -0.8300000E+01  0.1395078E+05 -0.2959295E-02 -0.2114502E+05  0.7423556E-03  0.7508786E+05  0.2333287E-03
 -0.8200000E+01  0.1592008E+05 -0.2580160E-02 -0.2120751E+05  0.4747449E-03  0.8639523E+05  0.2419681E-03
 -0.8100000E+01  0.1721576E+05 -0.2158187E-02 -0.2127528E+05  0.1009829E-02  0.9428038E+05  0.2445866E-03
 -0.8000000E+01  0.1776102E+05 -0.1701917E-02 -0.2134840E+05  0.2447345E-02  0.9830662E+05  0.2409633E-03
 -0.7900000E+01  0.1750660E+05 -0.1220692E-02 -0.2142661E+05  0.4859233E-02  0.9817736E+05  0.2310666E-03
 -0.7800000E+01  0.1643392E+05 -0.7243799E-03 -0.2150942E+05  0.8287407E-02  0.9375289E+05  0.2150548E-03
 -0.7700000E+01  0.1455673E+05 -0.2231202E-03 -0.2159616E+05  0.1274193E-01  0.8506059E+05  0.1932686E-03
 -0.7600000E+01  0.1192141E+05  0.2729328E-03 -0.2168575E+05  0.1820068E-01  0.7229883E+05  0.1662205E-03
 -0.7500000E+01  0.8606601E+04  0.7538864E-03 -0.2177717E+05  0.2460950E-01  0.5583578E+05  0.1345778E-03
 -0.7400000E+01  0.4720761E+04  0.1210362E-02 -0.2186907E+05  0.3188369E-01  0.3619943E+05  0.9914046E-04
 -0.7300000E+01  0.3989918E+03  0.1633742E-02 -0.2196013E+05  0.3991036E-01  0.1406295E+05  0.6081708E-04
 -0.7200000E+01 -0.4201438E+04  0.2016381E-02 -0.2204889E+05  0.4855148E-01 -0.9777423E+04  0.2059612E-04
 -0.7100000E+01 -0.8906634E+04  0.2351800E-02 -0.2213402E+05  0.5764755E-01 -0.3442936E+05 -0.2048370E-04
 -0.7000000E+01 -0.1353228E+05  0.2634829E-02 -0.2221426E+05  0.6702249E-01 -0.5893548E+05 -0.6136332E-04
 -0.6900000E+01 -0.1789089E+05  0.2861740E-02 -0.2228849E+05  0.7648805E-01 -0.8230983E+05 -0.1009957E-03
 -0.6800000E+01 -0.2179901E+05  0.3030312E-02 -0.2235577E+05  0.8584995E-01 -0.1035746E+06 -0.1383749E-03
 -0.6700000E+01 -0.2508463E+05  0.3139853E-02 -0.2241547E+05  0.9491231E-01 -0.1217991E+06 -0.1725650E-03
 -0.6600000E+01 -0.2759479E+05  0.3191213E-02 -0.2246718E+05  0.1034842E+00 -0.1361387E+06 -0.2027250E-03
 -0.6500000E+01 -0.2920212E+05  0.3186693E-02 -0.2251072E+05  0.1113839E+00 -0.1458700E+06 -0.2281318E-03
 -0.6400000E+01 -0.2981129E+05  0.3129976E-02 -0.2254630E+05  0.1184449E+00 -0.1504253E+06 -0.2481988E-03
 -0.6300000E+01 -0.2936388E+05  0.3025980E-02 -0.2257423E+05  0.1245197E+00 -0.1494193E+06 -0.2624903E-03
 -0.6200000E+01 -0.2784264E+05  0.2880695E-02 -0.2259512E+05  0.1294840E+00 -0.1426742E+06 -0.2707307E-03
 -0.6100000E+01 -0.2527382E+05  0.2700997E-02 -0.2260957E+05  0.1332400E+00 -0.1302329E+06 -0.2728101E-03
 -0.6000000E+01 -0.2172815E+05  0.2494422E-02 -0.2261825E+05  0.1357190E+00 -0.1123682E+06 -0.2687846E-03
 -0.5900000E+01 -0.1732016E+05  0.2268948E-02 -0.2262166E+05  0.1368825E+00 -0.8958212E+05 -0.2588717E-03
 -0.5800000E+01 -0.1220589E+05  0.2032742E-02 -0.2262004E+05  0.1367232E+00 -0.6259678E+05 -0.2434408E-03
 -0.5700000E+01 -0.6578731E+04  0.1793938E-02 -0.2261319E+05  0.1352648E+00 -0.3233707E+05 -0.2230018E-03
 -0.5600000E+01 -0.6637349E+03  0.1560397E-02 -0.2260028E+05  0.1325607E+00  0.9572424E+02 -0.1981879E-03
 -0.5500000E+01  0.5289217E+04  0.1339499E-02 -0.2257975E+05  0.1286927E+00  0.3345617E+05 -0.1697362E-03
 -0.5400000E+01  0.1101420E+05  0.1137934E-02 -0.2254895E+05  0.1237674E+00  0.6639666E+05 -0.1384663E-03
 -0.5300000E+01  0.1623825E+05  0.9615281E-03 -0.2250417E+05  0.1179137E+00  0.9751148E+05 -0.1052569E-03
 -0.5200000E+01  0.2069147E+05  0.8151022E-03 -0.2244024E+05  0.1112782E+00  0.1253869E+06 -0.7102152E-04
 -0.5100000E+01  0.2411752E+05  0.7023636E-03 -0.2235064E+05  0.1040215E+00  0.1486533E+06 -0.3668289E-04
 -0.5000000E+01  0.2628389E+05  0.6258104E-03 -0.2222712E+05  0.9631307E-01  0.1660374E+06 -0.3150006E-05
 -0.4900000E+01  0.2699204E+05  0.5867177E-03 -0.2205970E+05  0.8832679E-01  0.1764145E+06  0.2870639E-04
 -0.4800000E+01  0.2608674E+05  0.5851148E-03 -0.2183663E+05  0.8023599E-01  0.1788562E+06  0.5807508E-04
 -0.4700000E+01  0.2346426E+05  0.6198243E-03 -0.2154439E+05  0.7220865E-01  0.1726740E+06  0.8422449E-04
 -0.4600000E+01  0.1907902E+05  0.6885251E-03 -0.2116756E+05  0.6440361E-01  0.1574569E+06  0.1065192E-03
 -0.4500000E+01  0.1294913E+05  0.7878628E-03 -0.2068913E+05  0.5696584E-01  0.1331000E+06  0.1244344E-03
 -0.4400000E+01  0.5158978E+04  0.9135706E-03 -0.2009043E+05  0.5002335E-01  0.9982405E+05  0.1375672E-03
 -0.4300000E+01 -0.4139381E+04  0.1060616E-02 -0.1935140E+05  0.4368402E-01  0.5818484E+05  0.1456442E-03
 -0.4200000E+01 -0.1472750E+05  0.1223385E-02 -0.1845091E+05  0.3803376E-01  0.9071879E+04  0.1485252E-03
 -0.4100000E+01 -0.2632442E+05  0.1395856E-02 -0.1736693E+05  0.3313439E-01 -0.4630593E+05  0.1462045E-03
 -0.4000000E+01 -0.3859197E+05  0.1571789E-02 -0.1607699E+05  0.2902325E-01 -0.1064427E+06  0.1388080E-03
 -0.3900000E+01 -0.5114322E+05  0.1744931E-02 -0.1455851E+05  0.2571284E-01 -0.1695728E+06  0.1265874E-03
 -0.3800000E+01 -0.6355228E+05  0.1909199E-02 -0.1278925E+05  0.2319157E-01 -0.2337149E+06  0.1099112E-03
 -0.3700000E+01 -0.7536588E+05  0.2058869E-02 -0.1074786E+05  0.2142506E-01 -0.2967266E+06  0.8925392E-04
 -0.3600000E+01 -0.8611678E+05  0.2188730E-02 -0.8414304E+04  0.2035791E-01 -0.3563661E+06  0.6518141E-04
 -0.3500000E+01 -0.9533757E+05  0.2294250E-02 -0.5770365E+04  0.1991635E-01 -0.4103594E+06  0.3833607E-04
 -0.3400000E+01 -0.1025757E+06  0.2371697E-02 -0.2800252E+04  0.2001099E-01 -0.4564716E+06  0.9419286E-05
 -0.3300000E+01 -0.1074082E+06  0.2418240E-02  0.5090384E+03  0.2053999E-01 -0.4925780E+06 -0.2082666E-04
 -0.3200000E+01 -0.1094566E+06  0.2432032E-02  0.4167056E+04  0.2139280E-01 -0.5167372E+06 -0.5163725E-04
 -0.3100000E+01 -0.1084002E+06  0.2412239E-02  0.8179588E+04  0.2245357E-01 -0.5272581E+06 -0.8224448E-04
 -0.3000000E+01 -0.1039894E+06  0.2359080E-02  0.1254825E+05  0.2360480E-01 -0.5227637E+06 -0.1118956E-03
 -0.2900000E+01 -0.9605602E+05  0.2273794E-02  0.1726995E+05  0.2473105E-01 -0.5022459E+06 -0.1398707E-03
 -0.2800000E+01 -0.8452242E+05  0.2158608E-02  0.2233689E+05  0.2572202E-01 -0.4651115E+06 -0.1654993E-03
 -0.2700000E+01 -0.6940804E+05  0.2016668E-02  0.2773612E+05  0.2647594E-01 -0.4112176E+06 -0.1881754E-03
 -0.2600000E+01 -0.5083295E+05  0.1851940E-02  0.3344954E+05  0.2690204E-01 -0.3408923E+06 -0.2073718E-03
 -0.2500000E+01 -0.2901900E+05  0.1669101E-02  0.3945392E+05  0.2692301E-01 -0.2549441E+06 -0.2226503E-03
 -0.2400000E+01 -0.4287845E+04  0.1473405E-02  0.4572064E+05  0.2647672E-01 -0.1546570E+06 -0.2336708E-03
 -0.2300000E+01  0.2294431E+05  0.1270529E-02  0.5221640E+05  0.2551759E-01 -0.4176873E+05 -0.2401989E-03
 -0.2200000E+01  0.5217420E+05  0.1066430E-02  0.5890300E+05  0.2401735E-01  0.8156009E+05 -0.2421090E-03
 -0.2100000E+01  0.8282251E+05  0.8671644E-03  0.6573781E+05  0.2196529E-01  0.2127974E+06 -0.2393863E-03
 -0.2000000E+01  0.1142469E+06  0.6787300E-03  0.7267446E+05  0.1936805E-01  0.3490955E+06 -0.2321252E-03
 -0.1900000E+01  0.1457568E+06  0.5069118E-03  0.7966309E+05  0.1624886E-01  0.4873613E+06 -0.2205266E-03
 -0.1800000E+01  0.1766310E+06  0.3571102E-03  0.8665095E+05  0.1264632E-01  0.6243360E+06 -0.2048905E-03
 -0.1700000E+01  0.2061358E+06  0.2342086E-03  0.9358334E+05  0.8613002E-02  0.7566805E+06 -0.1856090E-03
 -0.1600000E+01  0.2335435E+06  0.1424328E-03  0.1004041E+06  0.4213386E-02  0.8810619E+06 -0.1631552E-03
 -0.1500000E+01  0.2581527E+06  0.8524286E-04  0.1070566E+06 -0.4781660E-03  0.9942475E+06 -0.1380714E-03
 -0.1400000E+01  0.2793062E+06  0.6523793E-04  0.1134842E+06 -0.5379787E-02  0.1093191E+07 -0.1109552E-03
 -0.1300000E+01  0.2964097E+06  0.8408014E-04  0.1196313E+06 -0.1040439E-01  0.1175119E+07 -0.8244544E-04
 -0.1200000E+01  0.3089483E+06  0.1424562E-03  0.1254440E+06 -0.1546225E-01  0.1237612E+07 -0.5320562E-04
 -0.1100000E+01  0.3165012E+06  0.2400383E-03  0.1308713E+06 -0.2046338E-01  0.1278672E+07 -0.2390880E-04
 -0.1000000E+01  0.3187544E+06  0.3754978E-03  0.1358651E+06 -0.2531981E-01  0.1296782E+07  0.4778784E-05
 -0.9000000E+00  0.3155099E+06  0.5465313E-03  0.1403815E+06 -0.2994765E-01  0.1290958E+07  0.3221371E-04
 -0.8000000E+00  0.3066932E+06  0.7499062E-03  0.1443814E+06 -0.3426928E-01  0.1260772E+07  0.5779004E-04
 -0.7000000E+00  0.2923559E+06  0.9815345E-03  0.1478304E+06 -0.3821457E-01  0.1206379E+07  0.8095330E-04
 -0.6000000E+00  0.2726765E+06  0.1236580E-02  0.1507004E+06 -0.4172283E-01  0.1128512E+07  0.1012133E-03
 -0.5000000E+00  0.2479568E+06  0.1509561E-02  0.1529689E+06 -0.4474338E-01  0.1028470E+07  0.1181546E-03
 -0.4000000E+00  0.2186154E+06  0.1794491E-02  0.1546197E+06 -0.4723652E-01  0.9080906E+06  0.1314458E-03
 -0.3000000E+00  0.1851783E+06  0.2085021E-02  0.1556434E+06 -0.4917406E-01  0.7697003E+06  0.1408460E-03
 -0.2000000E+00  0.1482661E+06  0.2374601E-02  0.1560368E+06 -0.5053923E-01  0.6160599E+06  0.1462090E-03
 -0.1000000E+00  0.1085793E+06  0.2656632E-02  0.1558034E+06 -0.5132667E-01  0.4502936E+06  0.1474855E-03
  0.0000000E+00  0.6688089E+05  0.2924651E-02  0.1549528E+06 -0.5154189E-01  0.2758102E+06  0.1447222E-03
  0.1000000E+00  0.2397779E+05  0.3172482E-02  0.1535011E+06 -0.5120066E-01  0.9621469E+05  0.1380590E-03
  0.2000000E+00 -0.1929870E+05  0.3394404E-02  0.1514695E+06 -0.5032810E-01 -0.8478241E+05  0.1277235E-03
  0.3000000E+00 -0.6211351E+05  0.3585301E-02  0.1488851E+06 -0.4895759E-01 -0.2634601E+06  0.1140230E-03
  0.4000000E+00 -0.1036478E+06  0.3740801E-02  0.1457795E+06 -0.4712954E-01 -0.4361810E+06  0.9733566E-04
  0.5000000E+00 -0.1431189E+06  0.3857402E-02  0.1421886E+06 -0.4489025E-01 -0.5994814E+06  0.7809855E-04
  0.6000000E+00 -0.1797984E+06  0.3932578E-02  0.1381518E+06 -0.4229045E-01 -0.7501576E+06  0.5679543E-04
  0.7000000E+00 -0.2130294E+06  0.3964855E-02  0.1337116E+06 -0.3938395E-01 -0.8853426E+06  0.3394253E-04
  0.8000000E+00 -0.2422411E+06  0.3953872E-02  0.1289127E+06 -0.3622632E-01 -0.1002573E+07  0.1007524E-04
  0.9000000E+00 -0.2669612E+06  0.3900413E-02  0.1238016E+06 -0.3287366E-01 -0.1099846E+07 -0.1426702E-04
  0.1000000E+01 -0.2868255E+06  0.3806397E-02  0.1184252E+06 -0.2938122E-01 -0.1175657E+07 -0.3855440E-04
  0.1100000E+01 -0.3015840E+06  0.3674862E-02  0.1128311E+06 -0.2580242E-01 -0.1229035E+07 -0.6228039E-04
  0.1200000E+01 -0.3111051E+06  0.3509901E-02  0.1070664E+06 -0.2218777E-01 -0.1259547E+07 -0.8497371E-04
  0.1300000E+01 -0.3153752E+06  0.3316580E-02  0.1011772E+06 -0.1858397E-01 -0.1267303E+07 -0.1062097E-03
  0.1400000E+01 -0.3144961E+06  0.3100812E-02  0.9520798E+05 -0.1503318E-01 -0.1252934E+07 -0.1256187E-03
  0.1500000E+01 -0.3086793E+06  0.2869231E-02  0.8920144E+05 -0.1157230E-01 -0.1217565E+07 -0.1428935E-03
  0.1600000E+01 -0.2982371E+06  0.2629026E-02  0.8319746E+05 -0.8232556E-02 -0.1162768E+07 -0.1577943E-03
  0.1700000E+01 -0.2835723E+06  0.2387755E-02  0.7723337E+05 -0.5039170E-02 -0.1090515E+07 -0.1701506E-03
  0.1800000E+01 -0.2651644E+06  0.2153150E-02  0.7134338E+05 -0.2011064E-02 -0.1003106E+07 -0.1798615E-03
  0.1900000E+01 -0.2435553E+06  0.1932916E-02  0.6555842E+05  0.8392823E-03 -0.9031018E+06 -0.1868940E-03
  0.2000000E+01 -0.2193337E+06  0.1734509E-02  0.5990600E+05  0.3505668E-02 -0.7932499E+06 -0.1912772E-03
  0.2100000E+01 -0.1931181E+06  0.1564929E-02  0.5440991E+05  0.5988149E-02 -0.6764028E+06 -0.1930975E-03
  0.2200000E+01 -0.1655407E+06  0.1430523E-02  0.4909059E+05  0.8292754E-02 -0.5554411E+06 -0.1924886E-03
  0.2300000E+01 -0.1372301E+06  0.1336767E-02  0.4396508E+05  0.1043120E-01 -0.4331959E+06 -0.1896239E-03
  0.2400000E+01 -0.1087966E+06  0.1288114E-02  0.3904691E+05  0.1242041E-01 -0.3123763E+06 -0.1847041E-03
  0.2500000E+01 -0.8081679E+05  0.1287827E-02  0.3434641E+05  0.1428206E-01 -0.1955050E+06 -0.1779476E-03
  0.2600000E+01 -0.5382108E+05  0.1337852E-02  0.2987103E+05  0.1604196E-01 -0.8485705E+05 -0.1695787E-03
  0.2700000E+01 -0.2828268E+05  0.1438719E-02  0.2562533E+05  0.1772939E-01  0.1758678E+05 -0.1598167E-03
  0.2800000E+01 -0.4607941E+04  0.1589503E-02  0.2161141E+05  0.1937651E-01  0.1101781E+06 -0.1488671E-03
  0.2900000E+01  0.1686951E+05  0.1787779E-02  0.1782902E+05  0.2101737E-01  0.1916293E+06 -0.1369113E-03
  0.3000000E+01  0.3589345E+05  0.2029649E-02  0.1427607E+05  0.2268738E-01  0.2610267E+06 -0.1241014E-03
  0.3100000E+01  0.5228705E+05  0.2309817E-02  0.1094864E+05  0.2442226E-01  0.3178355E+06 -0.1105539E-03
  0.3200000E+01  0.6595213E+05  0.2621667E-02  0.7841508E+04  0.2625722E-01  0.3618906E+06 -0.9634755E-04
  0.3300000E+01  0.7686655E+05  0.2957435E-02  0.4948151E+04  0.2822613E-01  0.3933787E+06 -0.8152286E-04
  0.3400000E+01  0.8507934E+05  0.3308350E-02  0.2261229E+04  0.3036055E-01  0.4128101E+06 -0.6608366E-04
  0.3500000E+01  0.9070401E+05  0.3664874E-02 -0.2272858E+03  0.3268888E-01  0.4209807E+06 -0.5000178E-04
  0.3600000E+01  0.9391065E+05  0.4016927E-02 -0.2525980E+04  0.3523557E-01  0.4189308E+06 -0.3322310E-04
  0.3700000E+01  0.9491616E+05  0.4354145E-02 -0.4643664E+04  0.3802013E-01  0.4078944E+06 -0.1567638E-04
  0.3800000E+01  0.9397448E+05  0.4666179E-02 -0.6589357E+04  0.4105659E-01  0.3892503E+06  0.2717193E-05
  0.3900000E+01  0.9136580E+05  0.4942928E-02 -0.8372065E+04  0.4435270E-01  0.3644654E+06  0.2203246E-04
  0.4000000E+01  0.8738599E+05  0.5174883E-02 -0.1000075E+05  0.4790938E-01  0.3350442E+06  0.4232872E-04
  0.4100000E+01  0.8233570E+05  0.5353348E-02 -0.1148414E+05  0.5172043E-01  0.3024775E+06  0.6363752E-04
  0.4200000E+01  0.7651086E+05  0.5470741E-02 -0.1283087E+05  0.5577188E-01  0.2681948E+06  0.8595165E-04
  0.4300000E+01  0.7019362E+05  0.5520799E-02 -0.1404921E+05  0.6004208E-01  0.2335222E+06  0.1092133E-03
  0.4400000E+01  0.6364423E+05  0.5498797E-02 -0.1514721E+05  0.6450172E-01  0.1996460E+06  0.1333065E-03
  0.4500000E+01  0.5709457E+05  0.5401694E-02 -0.1613266E+05  0.6911378E-01  0.1675851E+06  0.1580491E-03
  0.4600000E+01  0.5074320E+05  0.5228295E-02 -0.1701306E+05  0.7383426E-01  0.1381679E+06  0.1831890E-03
  0.4700000E+01  0.4475154E+05  0.4979270E-02 -0.1779558E+05  0.7861225E-01  0.1120212E+06  0.2084029E-03
  0.4800000E+01  0.3924237E+05  0.4657214E-02 -0.1848723E+05  0.8339122E-01  0.8956387E+05  0.2332966E-03
  0.4900000E+01  0.3429894E+05  0.4266602E-02 -0.1909473E+05  0.8810934E-01  0.7101022E+05  0.2574107E-03
  0.5000000E+01  0.2996633E+05  0.3813709E-02 -0.1962461E+05  0.9270101E-01  0.5637966E+05  0.2802309E-03
  0.5100000E+01  0.2625408E+05  0.3306462E-02 -0.2008315E+05  0.9709796E-01  0.4551495E+05  0.3011965E-03
  0.5200000E+01  0.2313946E+05  0.2754263E-02 -0.2047651E+05  0.1012305E+00  0.3810239E+05  0.3197171E-03
  0.5300000E+01  0.2057246E+05  0.2167761E-02 -0.2081054E+05  0.1050291E+00  0.3370076E+05  0.3351895E-03
  0.5400000E+01  0.1848094E+05  0.1558574E-02 -0.2109100E+05  0.1084258E+00  0.3177022E+05  0.3470181E-03
  0.5500000E+01  0.1677651E+05  0.9389922E-03 -0.2132340E+05  0.1113559E+00  0.3170505E+05  0.3546333E-03
  0.5600000E+01  0.1536060E+05  0.3216543E-03 -0.2151298E+05  0.1137590E+00  0.3286611E+05  0.3575168E-03
  0.5700000E+01  0.1413064E+05 -0.2807892E-03 -0.2166485E+05  0.1155817E+00  0.3461311E+05  0.3552213E-03
  0.5800000E+01  0.1298578E+05 -0.8560090E-03 -0.2178383E+05  0.1167772E+00  0.3633466E+05  0.3473934E-03
  0.5900000E+01  0.1183222E+05 -0.1392347E-02 -0.2187437E+05  0.1173084E+00  0.3747567E+05  0.3337909E-03
  0.6000000E+01  0.1058795E+05 -0.1879130E-02 -0.2194073E+05  0.1171480E+00  0.3756107E+05  0.3143025E-03
  0.6100000E+01  0.9186467E+04 -0.2306960E-02 -0.2198681E+05  0.1162794E+00  0.3621350E+05  0.2889603E-03
  0.6200000E+01  0.7579833E+04 -0.2667973E-02 -0.2201614E+05  0.1146977E+00  0.3316817E+05  0.2579498E-03
  0.6300000E+01  0.5740519E+04 -0.2956055E-02 -0.2203192E+05  0.1124102E+00  0.2828001E+05  0.2216165E-03
  0.6400000E+01  0.3662134E+04 -0.3167012E-02 -0.2203691E+05  0.1094361E+00  0.2152640E+05  0.1804656E-03
  0.6500000E+01  0.1359221E+04 -0.3298682E-02 -0.2203353E+05  0.1058070E+00  0.1300374E+05  0.1351579E-03
  0.6600000E+01 -0.1133785E+04 -0.3350982E-02 -0.2202383E+05  0.1015658E+00  0.2919756E+04  0.8649891E-04
  0.6700000E+01 -0.3764784E+04 -0.3325903E-02 -0.2200945E+05  0.9676675E-01 -0.8419626E+04  0.3542429E-04
  0.6800000E+01 -0.6466868E+04 -0.3227446E-02 -0.2199166E+05  0.9147350E-01 -0.2062709E+05 -0.1702064E-04
  0.6900000E+01 -0.9161891E+04 -0.3061485E-02 -0.2197138E+05  0.8575892E-01 -0.3325417E+05 -0.6970704E-04
  0.7000000E+01 -0.1176426E+05 -0.2835590E-02 -0.2194925E+05  0.7970265E-01 -0.4581214E+05 -0.1214510E-03
  0.7100000E+01 -0.1418522E+05 -0.2558797E-02 -0.2192557E+05  0.7338980E-01 -0.5779704E+05 -0.1710462E-03
  0.7200000E+01 -0.1633732E+05 -0.2241317E-02 -0.2190044E+05  0.6690922E-01 -0.6871176E+05 -0.2172991E-03
  0.7300000E+01 -0.1813845E+05 -0.1894257E-02 -0.2187373E+05  0.6035149E-01 -0.7808909E+05 -0.2590638E-03
  0.7400000E+01 -0.1951580E+05 -0.1529251E-02 -0.2184509E+05  0.5380652E-01 -0.8551354E+05 -0.2952802E-03
  0.7500000E+01 -0.2040945E+05 -0.1158131E-02 -0.2181419E+05  0.4736168E-01 -0.9063886E+05 -0.3250072E-03
  0.7600000E+01 -0.2077511E+05 -0.7925698E-03 -0.2178054E+05  0.4110005E-01 -0.9320398E+05 -0.3474564E-03
  0.7700000E+01 -0.2058647E+05 -0.4437378E-03 -0.2174363E+05  0.3509804E-01 -0.9304397E+05 -0.3620212E-03
  0.7800000E+01 -0.1983652E+05 -0.1219712E-03 -0.2170299E+05  0.2942377E-01 -0.9009785E+05 -0.3683014E-03
  0.7900000E+01 -0.1853830E+05  0.1635188E-03 -0.2165814E+05  0.2413541E-01 -0.8441127E+05 -0.3661225E-03
  0.8000000E+01 -0.1672449E+05  0.4049074E-03 -0.2160877E+05  0.1928001E-01 -0.7613490E+05 -0.3555476E-03
  0.8100000E+01 -0.1444649E+05  0.5959712E-03 -0.2155464E+05  0.1489184E-01 -0.6551855E+05 -0.3368841E-03
  0.8200000E+01 -0.1177260E+05  0.7322410E-03 -0.2149562E+05  0.1099230E-01 -0.5290161E+05 -0.3106812E-03
  0.8300000E+01 -0.8785407E+04  0.8111147E-03 -0.2143174E+05  0.7588851E-02 -0.3869909E+05 -0.2777194E-03
  0.8400001E+01 -0.5578986E+04  0.8318932E-03 -0.2136314E+05  0.4675169E-02 -0.2338608E+05 -0.2389945E-03
  0.8500000E+01 -0.2255048E+04  0.7957465E-03 -0.2129014E+05  0.2231454E-02 -0.7478586E+04 -0.1956927E-03
  0.8600000E+01  0.1080613E+04  0.7056512E-03 -0.2121315E+05  0.2246079E-03  0.8486689E+04 -0.1491570E-03
  0.8700000E+01  0.4322068E+04  0.5662409E-03 -0.2113269E+05 -0.1390374E-02  0.2397228E+05 -0.1008532E-03
  0.8800000E+01  0.7367381E+04  0.3836041E-03 -0.2104937E+05 -0.2669487E-02  0.3846131E+05 -0.5232359E-04
  0.8900001E+01  0.1012210E+05  0.1650588E-03 -0.2096392E+05 -0.3677927E-02  0.5147631E+05 -0.5144014E-05
  0.9000000E+01  0.1250273E+05 -0.8113214E-04 -0.2087704E+05 -0.4488605E-02  0.6259707E+05  0.3912549E-04
  0.9100000E+01  0.1444003E+05 -0.3460797E-03 -0.2078949E+05 -0.5179813E-02  0.7147702E+05  0.7899279E-04
  0.9200000E+01  0.1588094E+05 -0.6205660E-03 -0.2070195E+05 -0.5833218E-02  0.7785390E+05  0.1130775E-03
  0.9300000E+01  0.1679075E+05 -0.8954109E-03 -0.2061511E+05 -0.6531604E-02  0.8156004E+05  0.1401610E-03
  0.9400001E+01  0.1715384E+05 -0.1161760E-02 -0.2052955E+05 -0.7356348E-02  0.8252677E+05  0.1592263E-03
  0.9500000E+01  0.1697430E+05 -0.1411428E-02 -0.2044582E+05 -0.8385179E-02  0.8078592E+05  0.1694954E-03
  0.9600000E+01  0.1627518E+05 -0.1637172E-02 -0.2036425E+05 -0.9689950E-02  0.7646715E+05  0.1704603E-03
  0.9700000E+01  0.1509770E+05 -0.1832945E-02 -0.2028516E+05 -0.1133425E-01  0.6979242E+05  0.1619036E-03
  0.9800000E+01  0.1349901E+05 -0.1994079E-02 -0.2020864E+05 -0.1337161E-01  0.6106437E+05  0.1439126E-03
  0.9900001E+01  0.1155021E+05 -0.2117470E-02 -0.2013470E+05 -0.1584367E-01  0.5065584E+05  0.1168818E-03
  0.1000000E+02  0.9333154E+04 -0.2201648E-02 -0.2006319E+05 -0.1877847E-01  0.3899323E+05  0.8150957E-04
Zone t="beta  0.8975979E+00",I=   199,F=POINT
 -0.9800000E+01 -0.9247008E+04 -0.1159537E+05 -0.2032836E+05  0.5804118E+05 -0.4628633E+05  0.3052284E-03
 -0.9700000E+01 -0.1007810E+05 -0.1263753E+05 -0.2040545E+05  0.6390314E+05 -0.5096111E+05  0.3036837E-03
 -0.9600000E+01 -0.1054600E+05 -0.1322425E+05 -0.2047707E+05  0.6741585E+05 -0.5376236E+05  0.2937686E-03
 -0.9500000E+01 -0.1062328E+05 -0.1332116E+05 -0.2054322E+05  0.6837994E+05 -0.5453122E+05  0.2755627E-03
 -0.9400001E+01 -0.1029758E+05 -0.1291274E+05 -0.2060408E+05  0.6669329E+05 -0.5318614E+05  0.2493706E-03
 -0.9300000E+01 -0.9572553E+04 -0.1200359E+05 -0.2066011E+05  0.6235784E+05 -0.4972879E+05  0.2157075E-03
 -0.9200000E+01 -0.8468155E+04 -0.1061871E+05 -0.2071192E+05  0.5548224E+05 -0.4424568E+05  0.1752839E-03
 -0.9100000E+01 -0.7020228E+04 -0.8803067E+04 -0.2076020E+05  0.4628043E+05 -0.3690744E+05  0.1289815E-03
 -0.9000000E+01 -0.5279475E+04 -0.6620239E+04 -0.2080598E+05  0.3506525E+05 -0.2796363E+05  0.7782026E-04
 -0.8900001E+01 -0.3310008E+04 -0.4150605E+04 -0.2085026E+05  0.2224019E+05 -0.1773601E+05  0.2293002E-04
 -0.8800000E+01 -0.1186828E+04 -0.1488218E+04 -0.2089414E+05  0.8283713E+04 -0.6606104E+04 -0.3449071E-04
 -0.8700000E+01  0.1006473E+04  0.1262095E+04 -0.2093875E+05 -0.6265389E+04  0.4996404E+04 -0.9320895E-04
 -0.8600000E+01  0.3181111E+04  0.3988997E+04 -0.2098520E+05 -0.2082921E+05  0.1661070E+05 -0.1519991E-03
 -0.8500000E+01  0.5246414E+04  0.6578796E+04 -0.2103450E+05 -0.3481254E+05  0.2776206E+05 -0.2096813E-03
 -0.8400001E+01  0.7113338E+04  0.8919855E+04 -0.2108751E+05 -0.4762515E+05  0.3797980E+05 -0.2651540E-03
 -0.8300000E+01  0.8698176E+04  0.1090718E+05 -0.2114501E+05 -0.5870605E+05  0.4681656E+05 -0.3174325E-03
 -0.8200000E+01  0.9926002E+04  0.1244681E+05 -0.2120750E+05 -0.6754648E+05  0.5386657E+05 -0.3656717E-03
 -0.8100000E+01  0.1073386E+05  0.1345983E+05 -0.2127528E+05 -0.7371133E+05  0.5878287E+05 -0.4091906E-03
 -0.8000000E+01  0.1107382E+05  0.1388614E+05 -0.2134840E+05 -0.7685918E+05  0.6129321E+05 -0.4474908E-03
 -0.7900000E+01  0.1091520E+05  0.1368723E+05 -0.2142662E+05 -0.7675809E+05  0.6121261E+05 -0.4802631E-03
 -0.7800000E+01  0.1024639E+05  0.1284857E+05 -0.2150943E+05 -0.7329890E+05  0.5845404E+05 -0.5073929E-03
 -0.7700000E+01  0.9075980E+04  0.1138092E+05 -0.2159615E+05 -0.6650295E+05  0.5303445E+05 -0.5289538E-03
 -0.7600000E+01  0.7432890E+04  0.9320554E+04 -0.2168576E+05 -0.5652540E+05  0.4507758E+05 -0.5451966E-03
 -0.7500000E+01  0.5366136E+04  0.6728926E+04 -0.2177718E+05 -0.4365403E+05  0.3481303E+05 -0.5565326E-03
 -0.7400000E+01  0.2943356E+04  0.3690849E+04 -0.2186908E+05 -0.2830173E+05  0.2257006E+05 -0.5635097E-03
 -0.7300000E+01  0.2487657E+03  0.3119468E+03 -0.2196013E+05 -0.1099469E+05  0.8768129E+04 -0.5667838E-03
 -0.7200000E+01 -0.2619544E+04 -0.3284806E+04 -0.2204889E+05  0.7644500E+04 -0.6096102E+04 -0.5670884E-03
 -0.7100000E+01 -0.5553189E+04 -0.6963467E+04 -0.2213403E+05  0.2691815E+05 -0.2146638E+05 -0.5651998E-03
 -0.7000000E+01 -0.8437229E+04 -0.1057995E+05 -0.2221426E+05  0.4607780E+05 -0.3674565E+05 -0.5619028E-03
 -0.6900000E+01 -0.1115479E+05 -0.1398766E+05 -0.2228849E+05  0.6435254E+05 -0.5131930E+05 -0.5579562E-03
 -0.6800000E+01 -0.1359145E+05 -0.1704314E+05 -0.2235578E+05  0.8097804E+05 -0.6457765E+05 -0.5540606E-03
 -0.6700000E+01 -0.1564002E+05 -0.1961195E+05 -0.2241547E+05  0.9522655E+05 -0.7594053E+05 -0.5508268E-03
 -0.6600000E+01 -0.1720505E+05 -0.2157447E+05 -0.2246719E+05  0.1064377E+06 -0.8488105E+05 -0.5487555E-03
 -0.6500000E+01 -0.1820722E+05 -0.2283113E+05 -0.2251074E+05  0.1140460E+06 -0.9094849E+05 -0.5482126E-03
 -0.6400000E+01 -0.1858703E+05 -0.2330739E+05 -0.2254630E+05  0.1176074E+06 -0.9378866E+05 -0.5494159E-03
 -0.6300000E+01 -0.1830807E+05 -0.2295759E+05 -0.2257424E+05  0.1168209E+06 -0.9316146E+05 -0.5524321E-03
 -0.6200000E+01 -0.1735959E+05 -0.2176827E+05 -0.2259512E+05  0.1115473E+06 -0.8895598E+05 -0.5571716E-03
 -0.6100000E+01 -0.1575796E+05 -0.1975986E+05 -0.2260958E+05  0.1018203E+06 -0.8119890E+05 -0.5633978E-03
 -0.6000000E+01 -0.1354728E+05 -0.1698775E+05 -0.2261825E+05  0.8785311E+05 -0.7006045E+05 -0.5707408E-03
 -0.5900000E+01 -0.1079894E+05 -0.1354146E+05 -0.2262166E+05  0.7003810E+05 -0.5585356E+05 -0.5787135E-03
 -0.5800000E+01 -0.7610247E+04 -0.9542943E+04 -0.2262005E+05  0.4894012E+05 -0.3902847E+05 -0.5867404E-03
 -0.5700000E+01 -0.4101771E+04 -0.5143458E+04 -0.2261320E+05  0.2528225E+05 -0.2016191E+05 -0.5941839E-03
 -0.5600000E+01 -0.4138417E+03 -0.5189421E+03 -0.2260029E+05 -0.7474065E+02  0.5964207E+02 -0.6003765E-03
 -0.5500000E+01  0.3297769E+04  0.4135262E+04 -0.2257975E+05 -0.2615703E+05  0.2085948E+05 -0.6046555E-03
 -0.5400000E+01  0.6867253E+04  0.8611251E+04 -0.2254895E+05 -0.5191101E+05  0.4139760E+05 -0.6063943E-03
 -0.5300000E+01  0.1012440E+05  0.1269557E+05 -0.2250417E+05 -0.7623748E+05  0.6079732E+05 -0.6050375E-03
 -0.5200000E+01  0.1290093E+05  0.1617724E+05 -0.2244023E+05 -0.9803133E+05  0.7817738E+05 -0.6001288E-03
 -0.5100000E+01  0.1503703E+05  0.1885580E+05 -0.2235066E+05 -0.1162218E+06  0.9268380E+05 -0.5913379E-03
 -0.5000000E+01  0.1638773E+05  0.2054954E+05 -0.2222712E+05 -0.1298132E+06  0.1035226E+06 -0.5784807E-03
 -0.4900000E+01  0.1682924E+05  0.2110319E+05 -0.2205970E+05 -0.1379263E+06  0.1099926E+06 -0.5615330E-03
 -0.4800000E+01  0.1626482E+05  0.2039541E+05 -0.2183664E+05 -0.1398353E+06  0.1115150E+06 -0.5406389E-03
 -0.4700000E+01  0.1462971E+05  0.1834503E+05 -0.2154439E+05 -0.1350019E+06  0.1076604E+06 -0.5161110E-03
 -0.4600000E+01  0.1189560E+05  0.1491657E+05 -0.2116756E+05 -0.1231047E+06  0.9817280E+05 -0.4884201E-03
 -0.4500000E+01  0.8073667E+04  0.1012402E+05 -0.2068913E+05 -0.1040617E+06  0.8298650E+05 -0.4581838E-03
 -0.4400000E+01  0.3216586E+04  0.4033415E+04 -0.2009044E+05 -0.7804542E+05  0.6223927E+05 -0.4261425E-03
 -0.4300000E+01 -0.2580832E+04 -0.3236309E+04 -0.1935140E+05 -0.4549057E+05  0.3627771E+05 -0.3931301E-03
 -0.4200000E+01 -0.9182453E+04 -0.1151444E+05 -0.1845091E+05 -0.7092618E+04  0.5656146E+04 -0.3600419E-03
 -0.4100000E+01 -0.1641302E+05 -0.2058127E+05 -0.1736693E+05  0.3620375E+05 -0.2887125E+05 -0.3277966E-03
 -0.4000000E+01 -0.2406170E+05 -0.3017245E+05 -0.1607699E+05  0.8322060E+05 -0.6636592E+05 -0.2972967E-03
 -0.3900000E+01 -0.3188728E+05 -0.3998541E+05 -0.1455850E+05  0.1325776E+06 -0.1057269E+06 -0.2693857E-03
 -0.3800000E+01 -0.3962420E+05 -0.4968719E+05 -0.1278925E+05  0.1827258E+06 -0.1457189E+06 -0.2448105E-03
 -0.3700000E+01 -0.4698986E+05 -0.5892344E+05 -0.1074785E+05  0.2319904E+06 -0.1850059E+06 -0.2241816E-03
 -0.3600000E+01 -0.5369292E+05 -0.6732881E+05 -0.8414294E+04  0.2786182E+06 -0.2221905E+06 -0.2079412E-03
 -0.3500000E+01 -0.5944200E+05 -0.7453791E+05 -0.5770354E+04  0.3208320E+06 -0.2558549E+06 -0.1963337E-03
 -0.3400000E+01 -0.6395489E+05 -0.8019692E+05 -0.2800234E+04  0.3568839E+06 -0.2846053E+06 -0.1893867E-03
 -0.3300000E+01 -0.6696790E+05 -0.8397517E+05  0.5090594E+03  0.3851130E+06 -0.3071175E+06 -0.1868969E-03
 -0.3200000E+01 -0.6824505E+05 -0.8557659E+05  0.4167067E+04  0.4040013E+06 -0.3221803E+06 -0.1884268E-03
 -0.3100000E+01 -0.6758643E+05 -0.8475073E+05  0.8179603E+04  0.4122270E+06 -0.3287400E+06 -0.1933112E-03
 -0.3000000E+01 -0.6483636E+05 -0.8130218E+05  0.1254826E+05  0.4087130E+06 -0.3259377E+06 -0.2006703E-03
 -0.2900000E+01 -0.5988996E+05 -0.7509962E+05  0.1726995E+05  0.3926715E+06 -0.3131451E+06 -0.2094356E-03
 -0.2800000E+01 -0.5269889E+05 -0.6608232E+05  0.2233690E+05  0.3636387E+06 -0.2899923E+06 -0.2183831E-03
 -0.2700000E+01 -0.4327521E+05 -0.5426538E+05  0.2773613E+05  0.3215027E+06 -0.2563900E+06 -0.2261738E-03
 -0.2600000E+01 -0.3169382E+05 -0.3974280E+05  0.3344956E+05  0.2665200E+06 -0.2125428E+06 -0.2314005E-03
 -0.2500000E+01 -0.1809304E+05 -0.2268795E+05  0.3945394E+05  0.1993230E+06 -0.1589550E+06 -0.2326410E-03
 -0.2400000E+01 -0.2673407E+04 -0.3352343E+04  0.4572068E+05  0.1209154E+06 -0.9642710E+05 -0.2285128E-03
 -0.2300000E+01  0.1430554E+05  0.1793862E+05  0.5221641E+05  0.3265588E+05 -0.2604246E+05 -0.2177281E-03
 -0.2200000E+01  0.3253007E+05  0.4079148E+05  0.5890304E+05 -0.6376682E+05  0.5085193E+05 -0.1991518E-03
 -0.2100000E+01  0.5163900E+05  0.6475330E+05  0.6573782E+05 -0.1663723E+06  0.1326771E+06 -0.1718510E-03
 -0.2000000E+01  0.7123170E+05  0.8932185E+05  0.7267446E+05 -0.2729342E+06  0.2176575E+06 -0.1351432E-03
 -0.1900000E+01  0.9087787E+05  0.1139573E+06  0.7966313E+05 -0.3810346E+06  0.3038647E+06 -0.8863704E-04
 -0.1800000E+01  0.1101275E+06  0.1380956E+06  0.8665096E+05 -0.4881260E+06  0.3892669E+06 -0.3226144E-04
 -0.1700000E+01  0.1285235E+06  0.1611634E+06  0.9358332E+05 -0.5915969E+06  0.4717824E+06  0.3371115E-04