VARIABLES="w (rad/s)"  
"A   1   1" "B   1   1"
"A   1   2" "B   1   2"
"A   1   3" "B   1   3"
"A   1   4" "B   1   4"
"A   1   5" "B   1   5"
"A   1   6" "B   1   6"
Zone t="Motion of body    1 in DoF   1",I=   525,F=POINT
  0.4000000E-01  0.1780619E+03  0.1642775E-04  0.3334135E-06 -0.8014922E-13  0.3073597E-04  0.2567991E-06 -0.8900156E-07 -0.7197159E-14 -0.4920152E+02 -0.4464375E-05  0.7105427E-13  0.9486769E-21
  0.8000000E-01  0.1780885E+03  0.1307801E-03 -0.1732260E-06 -0.8208189E-12  0.2004224E-04  0.4112294E-06  0.9278028E-07 -0.7552181E-13 -0.4901451E+02 -0.3537113E-04  0.9769963E-14 -0.1626303E-19
  0.1200000E+00  0.1781050E+03  0.4394191E-03  0.1341105E-06  0.6002665E-12  0.1877238E-04  0.5668705E-06  0.9732503E-08  0.2059036E-12 -0.4901210E+02 -0.1187558E-03  0.9148238E-13  0.1626303E-19
  0.1600000E+00  0.1780857E+03  0.1048904E-02  0.1601875E-06 -0.5456968E-13  0.2093933E-04  0.7835130E-06  0.3301125E-07  0.3837841E-12 -0.4897867E+02 -0.2835062E-03  0.3641532E-13  0.9627715E-18
  0.2000000E+00  0.1783313E+03  0.2048635E-02  0.2607703E-07 -0.9549694E-11  0.2650061E-04  0.1488848E-05 -0.9743326E-07  0.7177036E-13 -0.4900308E+02 -0.5533952E-03  0.1554312E-12 -0.7589415E-18
  0.2400000E+00  0.1782090E+03  0.3563101E-02 -0.1862645E-07  0.6275513E-11  0.2476748E-04  0.1390570E-05 -0.3472815E-07  0.2716094E-12 -0.4903669E+02 -0.9629010E-03 -0.1092459E-12  0.5204170E-19
  0.2800000E+00  0.1782803E+03  0.5694586E-02  0.4656613E-07 -0.1731678E-10  0.1437747E-04  0.1257971E-05 -0.3252148E-07 -0.9459234E-12 -0.4905351E+02 -0.1538749E-02 -0.6483702E-13 -0.3642919E-18
  0.3200000E+00  0.1783514E+03  0.8548977E-02 -0.4172325E-06  0.6839400E-11  0.1463172E-04  0.1431016E-05 -0.2737534E-07 -0.1515747E-11 -0.4906959E+02 -0.2309610E-02 -0.7993606E-14 -0.3469447E-17
  0.3600000E+00  0.1784363E+03  0.1226103E-01 -0.2793968E-07  0.8185452E-12  0.1051475E-04  0.1143092E-05 -0.2330421E-07 -0.1661071E-12 -0.4909064E+02 -0.3312141E-02  0.4618528E-13 -0.4839878E-17
  0.4000000E+00  0.1785329E+03  0.1695193E-01  0.6146729E-07 -0.6912159E-11  0.8921837E-05  0.1105017E-05 -0.7442395E-08 -0.2750600E-11 -0.4911047E+02 -0.4578440E-02  0.8881784E-15  0.8673617E-19
  0.4400000E+00  0.1786443E+03  0.2275844E-01  0.7450581E-08  0.7203198E-11  0.1334108E-04  0.1795470E-05  0.5904212E-08 -0.6920894E-11 -0.4913598E+02 -0.6145347E-02 -0.6217249E-13 -0.1717376E-17
  0.4800000E+00  0.1787598E+03  0.2983071E-01 -0.9126961E-07 -0.1309672E-11  0.3205962E-05  0.7063168E-06  0.8321194E-08  0.2626486E-11 -0.4916256E+02 -0.8053100E-02  0.1030287E-12 -0.2248202E-16
  0.5200000E+00  0.1788920E+03  0.3833013E-01 -0.2793968E-07  0.3594323E-10  0.6919960E-05  0.1382656E-05  0.6495225E-07 -0.4759739E-11 -0.4919207E+02 -0.1034517E-01  0.1962874E-12 -0.2458103E-16
  0.5600000E+00  0.1790313E+03  0.4842620E-01 -0.2123415E-06 -0.2037268E-11  0.9348849E-05  0.1330185E-05 -0.3028299E-07  0.1452499E-10 -0.4922379E+02 -0.1306661E-01  0.1296740E-12 -0.3205769E-16
  0.6000000E+00  0.1791772E+03  0.6029950E-01 -0.1750886E-06  0.9604265E-10  0.9401585E-05  0.1516384E-05 -0.2247293E-07 -0.4659899E-10 -0.4925704E+02 -0.1626562E-01  0.3552714E-13  0.4163336E-16
  0.6400000E+00  0.1793428E+03  0.7414941E-01 -0.1545995E-06 -0.1175795E-09  0.6390852E-05  0.8736141E-06  0.3142986E-08  0.4179355E-10 -0.4929445E+02 -0.1999512E-01 -0.1421085E-13 -0.2831069E-16
  0.6800000E+00  0.1795148E+03  0.9019555E-01 -0.9872019E-07  0.4329195E-10  0.4406204E-05  0.4607695E-06 -0.3609853E-07 -0.2230218E-10 -0.4933346E+02 -0.2431406E-01  0.3552714E-13 -0.1238593E-16
  0.7200000E+00  0.1796980E+03  0.1086800E+00 -0.6891787E-07  0.4583853E-10  0.2539600E-05  0.2313124E-06 -0.1683043E-07  0.3629097E-12 -0.4937537E+02 -0.2928675E-01 -0.7194245E-13  0.8118506E-17
  0.7600000E+00  0.1798944E+03  0.1298612E+00  0.0000000E+00  0.3594323E-10 -0.8628820E-05 -0.2227414E-05  0.4133153E-07 -0.6937135E-11 -0.4942008E+02 -0.3498172E-01  0.4796163E-13  0.6591949E-17
  0.8000000E+00  0.1801045E+03  0.1540223E+00  0.1862645E-08  0.1164153E-09 -0.5254988E-05 -0.1745991E-05 -0.5554102E-07 -0.8454393E-11 -0.4946717E+02 -0.4147346E-01 -0.6394885E-13  0.8326673E-16
  0.8400000E+00  0.1803231E+03  0.1814702E+00  0.1545995E-06  0.0000000E+00 -0.6263494E-05 -0.2130998E-05  0.3506284E-07 -0.5224466E-10 -0.4951654E+02 -0.4884395E-01  0.2131628E-13 -0.5974387E-16
  0.8800000E+00  0.1805578E+03  0.2125604E+00 -0.4284084E-07  0.8643838E-10 -0.2929708E-05 -0.1072033E-05  0.7039648E-07  0.3552984E-10 -0.4957044E+02 -0.5718694E-01 -0.5773160E-13 -0.1526557E-17
  0.9200000E+00  0.1808056E+03  0.2476759E+00 -0.5960464E-07  0.8032657E-10 -0.3375812E-05 -0.1095121E-05 -0.5995457E-07 -0.1388850E-09 -0.4962690E+02 -0.6660359E-01 -0.6217249E-14  0.3830269E-16
  0.9600000E+00  0.1810611E+03  0.2872105E+00 -0.7636845E-07  0.8032657E-10  0.4535192E-05  0.6684537E-06 -0.1451963E-07 -0.1246875E-09 -0.4968431E+02 -0.7719724E-01  0.1865175E-13 -0.4329870E-16
  0.1000000E+01  0.1813356E+03  0.3316551E+00 -0.1899898E-06  0.5456968E-10  0.4663831E-05  0.2500577E-05  0.1001640E-06 -0.1798677E-09 -0.4974664E+02 -0.8909799E-01 -0.3996803E-13 -0.1647987E-15
  0.1040000E+01  0.1816200E+03  0.3814905E+00  0.2030283E-06  0.1097214E-09  0.2395245E-05  0.1280958E-05  0.8869597E-07 -0.5520434E-10 -0.4981142E+02 -0.1024326E+00  0.3730349E-13 -0.1695866E-15
  0.1080000E+01  0.1819189E+03  0.4372943E+00 -0.2365559E-06  0.2357410E-09  0.9662472E-06  0.1017524E-05  0.5593415E-07 -0.1663597E-09 -0.4987943E+02 -0.1173519E+00  0.7460699E-13 -0.1985911E-15
  0.1120000E+01  0.1822284E+03  0.4996784E+00  0.3110617E-06  0.2037268E-09  0.2949266E-05  0.1503676E-05  0.3552168E-07 -0.2301357E-09 -0.4994987E+02 -0.1340164E+00 -0.3552714E-13  0.3108624E-15
  0.1160000E+01  0.1825584E+03  0.5693533E+00  0.6705523E-07  0.2278830E-09 -0.4890142E-05 -0.1128295E-05 -0.5346192E-07  0.3792383E-09 -0.5002491E+02 -0.1526120E+00  0.1003642E-12 -0.1167122E-15
  0.1200000E+01  0.1829037E+03  0.6470853E+00  0.1993030E-06  0.4278263E-09 -0.7648952E-05 -0.1696420E-05 -0.8056008E-07  0.2333642E-09 -0.5010368E+02 -0.1733399E+00  0.9592327E-13 -0.2914335E-15
  0.1240000E+01  0.1832545E+03  0.7336611E+00 -0.1601875E-06 -0.1443550E-09  0.4035071E-05  0.2328138E-05 -0.4475737E-07 -0.8944432E-10 -0.5018334E+02 -0.1964059E+00 -0.1421085E-12  0.3054501E-15
  0.1280000E+01  0.1836363E+03  0.8300619E+00 -0.1862645E-08  0.2887100E-09  0.4840782E-05  0.2722210E-05  0.5831225E-08  0.2227352E-10 -0.5026987E+02 -0.2220638E+00  0.3286260E-13 -0.7549516E-15
  0.1320000E+01  0.1840258E+03  0.9372924E+00  0.1862645E-07  0.3265450E-09  0.8274801E-05  0.3158689E-05  0.8266170E-08  0.1834353E-09 -0.5035869E+02 -0.2505782E+00 -0.7283063E-13  0.2702005E-15
  0.1360000E+01  0.1844317E+03  0.1056539E+01  0.2421439E-07  0.3166497E-09 -0.2609682E-05 -0.1539528E-05 -0.5774791E-07  0.7183516E-10 -0.5045129E+02 -0.2822542E+00  0.9148238E-13 -0.6605827E-16
  0.1400000E+01  0.1848597E+03  0.1189105E+01  0.7450581E-07 -0.5704350E-09 -0.4328787E-05 -0.3070574E-05  0.2120260E-07  0.6021281E-10 -0.5054871E+02 -0.3174324E+00 -0.7993606E-14 -0.4274358E-15
  0.1440000E+01  0.1852981E+03  0.1336470E+01  0.4842877E-07 -0.6286427E-09 -0.6032060E-05 -0.3644116E-05  0.6368055E-08  0.7158562E-09 -0.5064996E+02 -0.3565044E+00 -0.3552714E-13  0.6994405E-16
  0.1480000E+01  0.1857685E+03  0.1499937E+01  0.5960464E-07  0.3682799E-08 -0.8568168E-05 -0.5099182E-05 -0.7061089E-07 -0.5132349E-10 -0.5075490E+02 -0.3997836E+00  0.3108624E-13 -0.8215650E-15
  0.1520000E+01  0.1862486E+03  0.1681440E+01 -0.1862645E-07 -0.1039589E-08  0.9063748E-05  0.5583383E-05 -0.8042730E-07 -0.4131095E-09 -0.5086443E+02 -0.4477951E+00  0.5684342E-13 -0.5906386E-15
  0.1560000E+01  0.1867496E+03  0.1882859E+01  0.5587935E-07  0.4086178E-09  0.1024920E-05  0.9375962E-06 -0.5686661E-07 -0.6653285E-09 -0.5097873E+02 -0.5010148E+00 -0.2033929E-12  0.5953571E-15
  0.1600000E+01  0.1872702E+03  0.2106314E+01  0.2812594E-06  0.4656613E-10 -0.6282353E-05 -0.5546797E-05  0.7801418E-07 -0.8471829E-09 -0.5109750E+02 -0.5599894E+00 -0.2664535E-14  0.1476597E-14
  0.1640000E+01  0.1878104E+03  0.2354199E+01  0.1043081E-06  0.2052402E-08 -0.6309594E-05 -0.3082436E-05 -0.2606635E-07  0.2163070E-09 -0.5122066E+02 -0.6253254E+00  0.9503509E-13 -0.1820766E-15
  0.1680000E+01  0.1883770E+03  0.2629345E+01 -0.1005828E-06  0.2909219E-08  0.3312947E-05  0.1373310E-05 -0.5230163E-07 -0.5436701E-09 -0.5134975E+02 -0.6977575E+00  0.1447731E-12 -0.1142419E-14
  0.1720000E+01  0.1889641E+03  0.2934479E+01  0.2384186E-06  0.9511131E-09  0.1053675E-05 -0.4100236E-06 -0.7074004E-07  0.4157209E-09 -0.5148309E+02 -0.7779891E+00 -0.6661338E-13 -0.1909584E-15
  0.1760000E+01  0.1895771E+03  0.3272841E+01 -0.5587935E-08 -0.7683411E-09 -0.3111083E-05 -0.7106844E-05 -0.3892910E-07  0.2094367E-09 -0.5162268E+02 -0.8668462E+00 -0.7016610E-13  0.1612044E-14
  0.1800000E+01  0.1902092E+03  0.3647732E+01  0.2421439E-07 -0.6181653E-08 -0.1045177E-05 -0.3219175E-06 -0.5195943E-07 -0.8703374E-09 -0.5176659E+02 -0.9651676E+00 -0.6394885E-13  0.4246603E-15
  0.1840000E+01  0.1908646E+03  0.4063108E+01  0.6332994E-07 -0.1071021E-09 -0.2376386E-05 -0.2165025E-05  0.9915971E-07 -0.1886655E-08 -0.5191607E+02 -0.1073968E+01 -0.3552714E-13 -0.1429967E-14
  0.1880000E+01  0.1915449E+03  0.4523152E+01  0.1750886E-06 -0.4377216E-09 -0.4302594E-05 -0.4791212E-05 -0.7064818E-07 -0.8858225E-09 -0.5207114E+02 -0.1194299E+01  0.7993606E-13 -0.1226241E-14
  0.1920000E+01  0.1922510E+03  0.5032902E+01  0.7636845E-07 -0.4079193E-08 -0.6797840E-05 -0.6214308E-05 -0.4319622E-07  0.1312755E-08 -0.5223209E+02 -0.1327436E+01 -0.3108624E-13  0.2078337E-14
  0.1960000E+01  0.1929823E+03  0.5597664E+01 -0.3781170E-06  0.8271308E-08 -0.1496635E-05 -0.1514997E-05  0.4603407E-08 -0.2494233E-08 -0.5239840E+02 -0.1474713E+01 -0.5684342E-13 -0.1278422E-14
  0.2000000E+01  0.1937433E+03  0.6223258E+01  0.2793968E-06  0.0000000E+00 -0.7546623E-05 -0.1157350E-04  0.1525268E-07  0.1132037E-08 -0.5257112E+02 -0.1637632E+01 -0.2664535E-14 -0.9714450E-15
  0.2040000E+01  0.1945270E+03  0.6914986E+01  0.3334135E-06  0.1318054E-07 -0.5514827E-05 -0.1394508E-04 -0.6202117E-07  0.5132966E-08 -0.5274911E+02 -0.1817512E+01  0.3819167E-13  0.4076739E-14
  0.2080000E+01  0.1953448E+03  0.7680433E+01  0.1862645E-08 -0.7143244E-08 -0.5705748E-05 -0.8045570E-05 -0.2034767E-07 -0.2496104E-08 -0.5293468E+02 -0.2016253E+01 -0.5151435E-13 -0.3463896E-15
  0.2120000E+01  0.1961854E+03  0.8525786E+01 -0.1862645E-08 -0.1110602E-08 -0.5552312E-05 -0.6031919E-05 -0.3443347E-08  0.7023013E-08 -0.5312542E+02 -0.2235399E+01 -0.2220446E-13  0.4589662E-14
  0.2160000E+01  0.1970541E+03  0.9459107E+01  0.3911555E-07 -0.5154871E-08 -0.7735565E-05 -0.1072556E-04  0.4031563E-08  0.1896242E-08 -0.5332252E+02 -0.2476962E+01 -0.1776357E-13  0.4496403E-14
  0.2200000E+01  0.1979468E+03  0.1048900E+02 -0.8568168E-07  0.4994217E-08 -0.2169050E-05 -0.3971635E-05 -0.9738301E-07 -0.2195975E-08 -0.5352480E+02 -0.2743086E+01 -0.7815970E-13 -0.9403588E-14
  0.2240000E+01  0.1988675E+03  0.1162512E+02 -0.1918525E-06 -0.1421198E-07  0.4281290E-05  0.7450729E-05 -0.3652804E-07  0.4592129E-08 -0.5373314E+02 -0.3036121E+01 -0.6128431E-13 -0.1492140E-14
  0.2280000E+01  0.1998204E+03  0.1287803E+02 -0.1452863E-06  0.1512933E-07  0.3331457E-05  0.4632745E-05 -0.8592451E-08 -0.3174625E-09 -0.5394813E+02 -0.3358700E+01 -0.2220446E-13 -0.3227418E-14
  0.2320000E+01  0.2007967E+03  0.1425763E+02  0.2607703E-07  0.1350418E-08  0.4219473E-05  0.4294666E-06  0.5925904E-07  0.1721090E-08 -0.5416760E+02 -0.3713301E+01 -0.6039613E-13 -0.4507505E-14
  0.2360000E+01  0.2018066E+03  0.1577487E+02 -0.1490116E-07 -0.3434252E-08  0.4083849E-06  0.2169194E-05 -0.2141451E-07  0.9977608E-08 -0.5439482E+02 -0.4102595E+01 -0.3108624E-13  0.1310063E-15
  0.2400000E+01  0.2028354E+03  0.1743970E+02 -0.6146729E-07  0.0000000E+00 -0.4628324E-05 -0.1480436E-05  0.7720928E-08 -0.5172523E-08 -0.5462521E+02 -0.4528937E+01  0.7727152E-13  0.1998401E-14
  0.2440000E+01  0.2038847E+03  0.1926418E+02  0.2477318E-06  0.7669441E-08 -0.2748682E-05 -0.4504110E-05 -0.7063863E-07  0.5254294E-08 -0.5485988E+02 -0.4995268E+01  0.1190159E-12  0.6772360E-15
  0.2480000E+01  0.2049612E+03  0.2126222E+02 -0.1005828E-06  0.7217750E-08 -0.2942281E-05 -0.4803142E-05  0.8642473E-09  0.1105789E-07 -0.5510027E+02 -0.5504976E+01 -0.1403322E-12 -0.5231370E-14
  0.2520000E+01  0.2060586E+03  0.2344735E+02  0.1303852E-07 -0.2933666E-09  0.4399335E-06 -0.3008144E-05  0.6908294E-08 -0.1367904E-07 -0.5534431E+02 -0.6061280E+01  0.8881784E-14  0.7274181E-14
  0.2560000E+01  0.2071754E+03  0.2583480E+02 -0.1490116E-06  0.1221895E-07  0.7194001E-05  0.1593852E-04  0.6395021E-07 -0.5909460E-08 -0.5559193E+02 -0.6667810E+01  0.7993606E-14  0.3069544E-13
  0.2600000E+01  0.2083124E+03  0.2843955E+02 -0.1639128E-06 -0.1785811E-07 -0.2801651E-05  0.2033441E-05 -0.1927879E-07 -0.3856064E-08 -0.5584291E+02 -0.7328063E+01  0.1048051E-12 -0.6927791E-14
  0.2640000E+01  0.2094688E+03  0.3127753E+02  0.2235174E-07 -0.9220093E-09 -0.2577435E-05 -0.4933518E-06 -0.2049615E-07  0.5750928E-08 -0.5609682E+02 -0.8045972E+01 -0.4884981E-13 -0.3121503E-13
  0.2680000E+01  0.2106352E+03  0.3436050E+02 -0.1303852E-07 -0.5491077E-07  0.7461756E-05  0.9051542E-05 -0.1494823E-07  0.9327876E-08 -0.5635168E+02 -0.8824124E+01 -0.5329071E-14 -0.2410072E-13
  0.2720000E+01  0.2118172E+03  0.3770362E+02  0.4097819E-07 -0.4749745E-08  0.1050299E-04  0.1863645E-04  0.1151784E-07 -0.5616357E-08 -0.5660855E+02 -0.9665958E+01 -0.4440892E-13  0.6341593E-14
  0.2760000E+01  0.2130019E+03  0.4132009E+02 -0.1993030E-06 -0.2184882E-07  0.8065137E-05  0.1635417E-04  0.6090249E-07 -0.1521781E-07 -0.5686452E+02 -0.1057443E+02 -0.1953993E-13  0.9805489E-14
  0.2800000E+01  0.2142000E+03  0.4522949E+02  0.9313226E-07  0.8475035E-08  0.9081792E-05  0.2339904E-04 -0.3827495E-07 -0.9373900E-08 -0.5712249E+02 -0.1155415E+02 -0.1305622E-12  0.1243450E-14
  0.2840000E+01  0.2153766E+03  0.4943916E+02 -0.2607703E-07  0.6612390E-09  0.1099077E-05  0.4851387E-05  0.9780683E-07 -0.6717565E-08 -0.5737282E+02 -0.1260640E+02  0.5861978E-13 -0.2333245E-13
  0.2880000E+01  0.2165583E+03  0.5397656E+02 -0.5587935E-07  0.2548098E-07 -0.6144168E-05 -0.2069768E-04 -0.1520330E-06  0.1941163E-07 -0.5762287E+02 -0.1373782E+02  0.1687539E-12  0.3836931E-14
  0.2920000E+01  0.2177297E+03  0.5885500E+02  0.1229346E-06 -0.4215166E-07 -0.4850561E-05 -0.1252533E-04 -0.1263654E-06  0.1594995E-07 -0.5786827E+02 -0.1495107E+02 -0.4263256E-13  0.3241851E-14
  0.2960000E+01  0.2188928E+03  0.6409124E+02  0.2104789E-06  0.3239140E-07  0.1127727E-04  0.1784503E-04 -0.1604644E-07 -0.2002387E-07 -0.5810957E+02 -0.1624981E+02 -0.4085621E-13  0.2070344E-13
  0.3000000E+01  0.2200468E+03  0.6970311E+02  0.3594905E-06 -0.8800998E-07  0.9329757E-05  0.2426447E-04  0.1079570E-07 -0.1872934E-08 -0.5834548E+02 -0.1763790E+02 -0.1048051E-12  0.3030909E-13
  0.3040000E+01  0.2211778E+03  0.7569422E+02  0.1285225E-06 -0.1075864E-06 -0.1138076E-05 -0.8457386E-06  0.3846981E-07  0.1653803E-07 -0.5857481E+02 -0.1911569E+02  0.1429967E-12  0.6750155E-15
  0.3080000E+01  0.2222791E+03  0.8207594E+02  0.1918525E-06  0.1441408E-06  0.1531094E-05  0.1176639E-04  0.4953677E-07 -0.1217280E-07 -0.5879399E+02 -0.2068496E+02 -0.4529710E-13  0.6257661E-13
  0.3120000E+01  0.2233466E+03  0.8886354E+02  0.1341105E-06 -0.5884096E-07 -0.9562355E-06  0.1427429E-04  0.5319862E-08  0.2286663E-07 -0.5900301E+02 -0.2234901E+02  0.1811884E-12  0.6581402E-13
  0.3160000E+01  0.2243781E+03  0.9606739E+02  0.2086163E-06 -0.8828938E-08  0.5722744E-05  0.3764788E-04  0.2709839E-08  0.4104436E-08 -0.5920152E+02 -0.2410967E+02  0.1074696E-12 -0.1343681E-12
  0.3200000E+01  0.2253739E+03  0.1037103E+03  0.5587935E-08  0.2980232E-08  0.7187249E-05  0.2478342E-04  0.2763068E-07  0.1758235E-08 -0.5938884E+02 -0.2597184E+02  0.5062617E-13  0.1044498E-12
  0.3240000E+01  0.2263063E+03  0.1117927E+03  0.2570450E-06  0.3485195E-06  0.8242787E-05  0.3196733E-04 -0.2117986E-08 -0.2227918E-07 -0.5955847E+02 -0.2793481E+02 -0.7638334E-13  0.3381295E-13
  0.3280000E+01  0.2271906E+03  0.1203393E+03 -0.1676381E-07  0.4582107E-08  0.1089764E-05 -0.1952932E-05  0.9505220E-07 -0.4882528E-07 -0.5971423E+02 -0.3000382E+02  0.4085621E-13 -0.2112088E-13
  0.3320000E+01  0.2280176E+03  0.1293551E+03 -0.2235174E-07  0.1731515E-06 -0.8607749E-06 -0.9154805E-05 -0.9516111E-07 -0.5201693E-07 -0.5985359E+02 -0.3217907E+02  0.7993606E-13 -0.1179501E-13
  0.3360000E+01  0.2287830E+03  0.1388438E+03 -0.5587935E-08  0.1157820E-06  0.7708906E-05  0.1137597E-04 -0.8012148E-07  0.8781899E-09 -0.5997564E+02 -0.3446049E+02  0.4263256E-13 -0.9549694E-13
  0.3400000E+01  0.2294689E+03  0.1487991E+03  0.1285225E-06  0.1694076E-06 -0.2148096E-05 -0.1652802E-04  0.1359945E-06  0.4686933E-08 -0.6007595E+02 -0.3684518E+02 -0.7283063E-13 -0.9587886E-13
  0.3440000E+01  0.2300779E+03  0.1592189E+03 -0.3725290E-08  0.1105294E-06 -0.1566135E-05 -0.1607391E-04 -0.1585659E-07 -0.4822304E-07 -0.6015605E+02 -0.3933179E+02 -0.2664535E-14 -0.2367883E-13
  0.3480000E+01  0.2306032E+03  0.1701113E+03  0.1639128E-06  0.6968155E-07 -0.7572817E-06 -0.2856538E-05 -0.2644970E-07 -0.4857132E-07 -0.6021351E+02 -0.4192091E+02 -0.3375078E-13  0.3786304E-13
  0.3520000E+01  0.2310299E+03  0.1814620E+03  0.1266599E-06 -0.1803040E-07  0.8457573E-06 -0.5315281E-05  0.3897640E-08  0.3812933E-07 -0.6024557E+02 -0.4460810E+02 -0.1110223E-12 -0.1258371E-12
  0.3560000E+01  0.2313639E+03  0.1932790E+03  0.6891787E-07  0.7625669E-07  0.5723326E-05  0.2580512E-04 -0.8970369E-07 -0.3351124E-09 -0.6025391E+02 -0.4739445E+02  0.1243450E-13 -0.5375256E-13
  0.3600000E+01  0.2315908E+03  0.2055563E+03  0.2961606E-06 -0.2715737E-06 -0.5080365E-06 -0.2173742E-05  0.9318501E-07 -0.6588470E-08 -0.6023440E+02 -0.5027716E+02 -0.3588241E-12  0.1678657E-13
  0.3640000E+01  0.2317002E+03  0.2182805E+03 -0.2104789E-06  0.1559406E-06 -0.1775799E-05 -0.9554225E-05 -0.6692972E-08  0.6147008E-07 -0.6018478E+02 -0.5325216E+02  0.1829648E-12  0.6223466E-13
  0.3680000E+01  0.2317010E+03  0.2314785E+03  0.1043081E-06 -0.2519041E-06  0.7422175E-05  0.1049515E-04 -0.3297032E-07  0.3454544E-07 -0.6010865E+02 -0.5632515E+02 -0.1358913E-12  0.1552536E-13
  0.3720000E+01  0.2315787E+03  0.2451001E+03 -0.2905726E-06 -0.1766905E-06  0.3600377E-05  0.1470169E-04 -0.2290153E-07  0.3680672E-07 -0.6000078E+02 -0.5948196E+02 -0.1225686E-12  0.1561151E-12
  0.3760000E+01  0.2313281E+03  0.2591248E+03 -0.4097819E-07  0.9629875E-07 -0.4875474E-05 -0.2091127E-04 -0.4664184E-07 -0.4347037E-07 -0.5986151E+02 -0.6271679E+02 -0.4529710E-13  0.6929568E-13
  0.3800000E+01  0.2309443E+03  0.2735460E+03 -0.2048910E-06 -0.3539026E-08 -0.1711538E-05 -0.5771929E-05 -0.2826641E-07  0.1644705E-07 -0.5968827E+02 -0.6602610E+02  0.3108624E-13 -0.3375078E-13
  0.3840000E+01  0.2304292E+03  0.2883153E+03  0.1713634E-06 -0.1215935E-06 -0.3272784E-05 -0.9162873E-05  0.7194808E-07 -0.1226237E-06 -0.5948425E+02 -0.6939817E+02  0.3197442E-13  0.1176659E-12
  0.3880000E+01  0.2297726E+03  0.3034145E+03 -0.9126961E-07  0.2565607E-06  0.4737056E-05  0.1036045E-04 -0.5737047E-07 -0.2167016E-07 -0.5924537E+02 -0.7282641E+02 -0.2193801E-12 -0.7409184E-13
  0.3920000E+01  0.2289728E+03  0.3188065E+03 -0.7823110E-07 -0.1569837E-06  0.1120497E-05  0.2159667E-05 -0.2567276E-07 -0.5745885E-07 -0.5897279E+02 -0.7630159E+02  0.9858780E-13  0.2437162E-12
  0.3960000E+01  0.2280275E+03  0.3344618E+03  0.9313226E-07 -0.7449835E-06  0.4270696E-05  0.5080963E-05 -0.5649576E-07  0.5227945E-07 -0.5866581E+02 -0.7981563E+02  0.1323386E-12 -0.5803357E-13
  0.4000000E+01  0.2269282E+03  0.3503262E+03  0.1862645E-08  0.5178153E-06 -0.1573237E-05 -0.1037028E-05  0.1100079E-07  0.8861206E-08 -0.5832272E+02 -0.8335462E+02  0.1669775E-12 -0.9414690E-13
  0.4040000E+01  0.2256907E+03  0.3664097E+03  0.9872019E-07  0.8051842E-06  0.2431218E-05  0.3554663E-05  0.8239840E-07  0.7184519E-07 -0.5794662E+02 -0.8691967E+02 -0.8881784E-14  0.3588241E-14
  0.4080000E+01  0.2242908E+03  0.3826465E+03  0.3743917E-06 -0.4597753E-06 -0.2124580E-06  0.3063823E-05  0.6498954E-07  0.1088591E-07 -0.5753502E+02 -0.9049724E+02  0.4440892E-13  0.1304557E-12
  0.4120000E+01  0.2227436E+03  0.3989853E+03  0.1844019E-06 -0.1956895E-06 -0.2514571E-07 -0.4194134E-05 -0.6626738E-07 -0.7014137E-07 -0.5708783E+02 -0.9407043E+02  0.8970602E-13  0.2616396E-12
  0.4160000E+01  0.2210323E+03  0.4153894E+03 -0.3222376E-06 -0.1588464E-06  0.2542511E-06 -0.5208272E-05 -0.2592856E-07  0.6653281E-08 -0.5660563E+02 -0.9763433E+02  0.0000000E+00 -0.1477929E-13
  0.4200000E+01  0.2192090E+03  0.4319195E+03 -0.3259629E-06  0.5280599E-06 -0.1861656E-05 -0.1030866E-04 -0.6969526E-07  0.2265894E-06 -0.5609928E+02 -0.1012009E+03  0.1465494E-12 -0.1156408E-12
  0.4240000E+01  0.2171947E+03  0.4482239E+03  0.0000000E+00 -0.4343688E-06  0.3106892E-05  0.4380708E-05 -0.6273467E-08 -0.3732038E-07 -0.5554676E+02 -0.1046822E+03 -0.3019807E-13  0.9038103E-13
  0.4280000E+01  0.2150591E+03  0.4645361E+03  0.2179295E-06 -0.1714006E-06  0.4298869E-05  0.1667494E-04 -0.3241485E-07  0.7438490E-07 -0.5496998E+02 -0.1081390E+03  0.5329071E-14 -0.2603962E-12
  0.4320000E+01  0.2127895E+03  0.4806846E+03 -0.2607703E-07  0.2373755E-06  0.4793983E-05  0.4142001E-05  0.4295384E-07  0.6153135E-07 -0.5436510E+02 -0.1115293E+03 -0.1803002E-12 -0.3376499E-12
  0.4360000E+01  0.2103991E+03  0.4967280E+03 -0.2048910E-06  0.3329664E-06  0.7619383E-07 -0.1068792E-04 -0.4542585E-08  0.5105597E-07 -0.5373432E+02 -0.1148656E+03  0.3019807E-13 -0.2052403E-12
  0.4400000E+01  0.2078985E+03  0.5128237E+03 -0.8754432E-07  0.1475215E-06 -0.8331728E-05 -0.1993871E-04  0.4767878E-07  0.5465376E-07 -0.5308475E+02 -0.1181892E+03  0.2717826E-12  0.7796430E-12
  0.4440000E+01  0.2052332E+03  0.5279880E+03  0.8009374E-07  0.3059953E-06  0.1220906E-05 -0.2639468E-05 -0.4600201E-07  0.1349012E-06 -0.5239594E+02 -0.1212621E+03  0.4884981E-13 -0.2839328E-12
  0.4480000E+01  0.2024850E+03  0.5431366E+03 -0.9685755E-07  0.1168251E-06 -0.2796471E-05 -0.7039494E-05  0.8966026E-07 -0.4541172E-07 -0.5169358E+02 -0.1243065E+03 -0.9769963E-14  0.1890043E-12
  0.4520000E+01  0.1996305E+03  0.5579310E+03  0.4842877E-07 -0.1262873E-06  0.2610614E-05  0.2421823E-05  0.4517074E-07 -0.7468918E-07 -0.5097152E+02 -0.1272425E+03 -0.2842171E-13 -0.2288303E-12
  0.4560000E+01  0.1966792E+03  0.5723133E+03  0.2440065E-06  0.1401454E-06  0.2444722E-06 -0.2089865E-04  0.5610070E-07 -0.1047348E-07 -0.5023115E+02 -0.1300562E+03  0.1563194E-12 -0.8707701E-13
  0.4600000E+01  0.1936503E+03  0.5862807E+03  0.7450581E-08 -0.1225248E-05  0.4259404E-05 -0.6640865E-05 -0.5463335E-08  0.1434284E-06 -0.4947730E+02 -0.1327479E+03  0.2930989E-13 -0.2839506E-12
  0.4640000E+01  0.1905175E+03  0.5996833E+03  0.3557652E-06  0.1555681E-05  0.2323242E-05 -0.2066868E-04  0.2879892E-07  0.3972549E-07 -0.4870481E+02 -0.1352854E+03 -0.7194245E-13  0.2699352E-12
  0.4680000E+01  0.1873296E+03  0.6126174E+03  0.1341105E-06 -0.4445761E-06  0.3071327E-05 -0.1107572E-04  0.4927813E-07  0.4637758E-07 -0.4792444E+02 -0.1376906E+03 -0.6039613E-13  0.4426859E-12
  0.4720000E+01  0.1840904E+03  0.6250069E+03  0.6519258E-07 -0.2461672E-06 -0.1273584E-06 -0.1095004E-04 -0.8032077E-07 -0.3988776E-07 -0.4713767E+02 -0.1399478E+03 -0.6750156E-13 -0.4422773E-12
  0.4760000E+01  0.1807903E+03  0.6367917E+03  0.2421439E-07  0.1019612E-05  0.1406937E-05  0.8991979E-05  0.9271207E-07 -0.9715200E-07 -0.4634193E+02 -0.1420433E+03 -0.7371881E-13 -0.8835954E-12
  0.4800000E+01  0.1774539E+03  0.6479803E+03  0.2067536E-06  0.3889203E-06 -0.4825415E-06 -0.8437502E-05  0.9510393E-07  0.9369614E-08 -0.4554346E+02 -0.1439817E+03  0.9681145E-13 -0.4135359E-12
  0.4840000E+01  0.1741007E+03  0.6585721E+03 -0.2924353E-06 -0.1126900E-05  0.1665903E-05 -0.3343513E-05  0.5174388E-07 -0.1783160E-06 -0.4474716E+02 -0.1457649E+03 -0.4529710E-13  0.2923173E-12
  0.4880000E+01  0.1707099E+03  0.6684680E+03  0.4097819E-07  0.4590302E-06  0.2143206E-05  0.2712426E-05  0.3218577E-07  0.7801759E-07 -0.4394793E+02 -0.1473706E+03 -0.6217249E-13  0.9318767E-13
  0.4920000E+01  0.1673188E+03  0.6777521E+03  0.1154840E-06 -0.1580827E-05  0.5363836E-06  0.1116631E-04  0.4192839E-07  0.6070452E-07 -0.4315451E+02 -0.1488201E+03  0.7105427E-13 -0.1182041E-11
  0.4960000E+01  0.1639247E+03  0.6863602E+03 -0.3613532E-06  0.9331106E-06  0.4260219E-06  0.5232868E-05  0.2995307E-08 -0.2212956E-06 -0.4236630E+02 -0.1501005E+03 -0.5240253E-13 -0.9030998E-12
  0.5000000E+01  0.1605218E+03  0.6942397E+03 -0.2235174E-06  0.5727633E-06 -0.3985362E-05  0.1588254E-04  0.7506026E-07 -0.5032802E-07 -0.4158301E+02 -0.1512044E+03 -0.1074696E-12 -0.2708944E-12
  0.5040000E+01  0.1571768E+03  0.7015976E+03 -0.3352761E-07 -0.1013875E-05 -0.2260786E-06  0.3744531E-05 -0.1418994E-07  0.1775246E-06 -0.4081680E+02 -0.1521740E+03  0.1767475E-12 -0.4342127E-12
  0.5080000E+01  0.1538356E+03  0.7082223E+03  0.1620501E-06  0.1088157E-06 -0.4512840E-06 -0.5179983E-05  0.4447020E-07 -0.5375122E-07 -0.4005777E+02 -0.1529678E+03 -0.9148238E-13 -0.1105427E-12
  0.5120000E+01  0.1504940E+03  0.7140591E+03  0.2067536E-06 -0.3242493E-06 -0.4645961E-05 -0.1206696E-04 -0.5312700E-08 -0.1147599E-06 -0.3930505E+02 -0.1535768E+03 -0.6927792E-13  0.3160494E-12
  0.5160000E+01  0.1472243E+03  0.7193867E+03  0.5681068E-07  0.5814805E-06  0.3327732E-05 -0.9862342E-05 -0.1300657E-07  0.1176739E-06 -0.3857323E+02 -0.1540601E+03  0.1065814E-13 -0.2016520E-12
  0.5200000E+01  0.1439696E+03  0.7239464E+03 -0.2961606E-06  0.9298324E-06  0.1420645E-05 -0.1091675E-04  0.5724814E-08  0.1234709E-06 -0.3785085E+02 -0.1543663E+03 -0.6217249E-14  0.7158718E-13
  0.5240000E+01  0.1407911E+03  0.7279756E+03 -0.8754432E-07  0.5465746E-06 -0.4832982E-06 -0.1502470E-05 -0.5935772E-07  0.3566927E-07 -0.3714982E+02 -0.1545451E+03  0.4440892E-14 -0.2140865E-12
  0.5280000E+01  0.1376607E+03  0.7313326E+03  0.9406358E-07  0.9146332E-06  0.1517212E-05 -0.1512741E-04  0.6949460E-07  0.1041726E-06 -0.3646550E+02 -0.1545713E+03  0.7815970E-13 -0.3845457E-12
  0.5320000E+01  0.1345722E+03  0.7340211E+03 -0.1071021E-06  0.2675503E-06  0.2857269E-05  0.2421888E-05  0.6735183E-07  0.1539294E-06 -0.3579605E+02 -0.1544463E+03  0.1687539E-13 -0.3567457E-12
  0.5360000E+01  0.1315584E+03  0.7361767E+03 -0.3911555E-07 -0.7138401E-06  0.4317844E-06 -0.8820667E-05  0.1237436E-07  0.6831612E-07 -0.3514698E+02 -0.1541972E+03  0.6750156E-13  0.7140954E-14
  0.5400000E+01  0.1285901E+03  0.7376575E+03 -0.1117587E-06 -0.9102746E-06 -0.6991613E-06  0.8162297E-05 -0.8865220E-07 -0.5897208E-08 -0.3451508E+02 -0.1538036E+03  0.7105427E-14 -0.4556355E-13
  0.5440000E+01  0.1257536E+03  0.7388149E+03 -0.3445894E-07 -0.1215935E-05 -0.2291345E-06  0.4367865E-05  0.1521971E-07  0.2261695E-08 -0.3391492E+02 -0.1533332E+03 -0.2842171E-13 -0.2246736E-12
  0.5480000E+01  0.1229123E+03  0.7391318E+03 -0.2048910E-07 -0.1548957E-05  0.1109234E-05  0.7853397E-05  0.4489067E-07  0.1670597E-06 -0.3332029E+02 -0.1526844E+03 -0.6616929E-13 -0.7300826E-13
  0.5520000E+01  0.1202119E+03  0.7391923E+03  0.8754432E-07  0.5140900E-07  0.4432222E-06 -0.3196194E-05 -0.6683081E-07  0.8768398E-07 -0.3275899E+02 -0.1519753E+03  0.6794565E-13  0.1397282E-12
  0.5560000E+01  0.1175570E+03  0.7386332E+03  0.7543713E-07 -0.1843423E-05 -0.7131603E-06 -0.1931937E-05 -0.1110482E-07 -0.2560000E-09 -0.3221363E+02 -0.1511381E+03 -0.5018208E-13  0.1333333E-12
  0.5600000E+01  0.1149933E+03  0.7376515E+03 -0.4936010E-07 -0.7301569E-07  0.1081207E-06  0.8264627E-05  0.3829143E-08  0.7870189E-07 -0.3169192E+02 -0.1502125E+03 -0.5417888E-13 -0.3357314E-13
  0.5640000E+01  0.1125263E+03  0.7362958E+03 -0.2887100E-07 -0.2074800E-05 -0.6133632E-06  0.1600255E-05 -0.1395506E-09 -0.1434132E-06 -0.3119605E+02 -0.1492119E+03  0.3819167E-13  0.4771383E-12
  0.5680000E+01  0.1100911E+03  0.7342891E+03  0.4190952E-07  0.2644956E-06 -0.3049616E-05  0.1287118E-04  0.5371913E-07  0.7584231E-07 -0.3071010E+02 -0.1480756E+03 -0.6306067E-13  0.6306067E-14
  0.5720000E+01  0.1077744E+03  0.7320473E+03 -0.9313226E-08  0.8203834E-06 -0.2653454E-05  0.3206620E-05 -0.7262088E-08  0.4870045E-07 -0.3025407E+02 -0.1468951E+03  0.1421085E-13 -0.4191314E-13
  0.5760000E+01  0.1055097E+03  0.7292921E+03 -0.6612390E-07 -0.1853406E-05  0.2138229E-05  0.1502842E-04 -0.1497278E-07 -0.1927225E-06 -0.2981232E+02 -0.1456111E+03 -0.7105427E-14  0.2813749E-13
  0.5800000E+01  0.1033230E+03  0.7262041E+03  0.7823110E-07 -0.4078261E-06  0.8011120E-06  0.1582673E-04  0.4836579E-08 -0.1196824E-06 -0.2939176E+02 -0.1442655E+03 -0.7549517E-14  0.4391598E-12
  0.5840000E+01  0.1012435E+03  0.7228201E+03 -0.2048910E-07  0.5982816E-06 -0.2614717E-05  0.4375104E-05  0.4260670E-07  0.2741863E-06 -0.2899562E+02 -0.1428613E+03 -0.2264855E-13  0.2593481E-13
  0.5880000E+01  0.9923592E+02  0.7191138E+03  0.1126900E-06  0.1667496E-05 -0.3371300E-05  0.1363910E-06  0.2304455E-07  0.1838543E-06 -0.2861836E+02 -0.1413976E+03  0.1345590E-12  0.8878231E-13
  0.5920000E+01  0.9730836E+02  0.7151107E+03 -0.5867332E-07 -0.1775324E-05 -0.2903631E-05 -0.5221045E-05  0.3220129E-07  0.8175449E-07 -0.2826173E+02 -0.1398837E+03 -0.5728751E-13 -0.3299405E-12
  0.5960000E+01  0.9545444E+02  0.7108129E+03 -0.8940697E-07  0.2553314E-06 -0.1269305E-05  0.2826511E-05 -0.5920020E-07 -0.4318854E-07 -0.2792338E+02 -0.1383169E+03 -0.2131628E-13 -0.2249756E-13
  0.6000000E+01  0.9366528E+02  0.7062077E+03  0.7078052E-07  0.5587935E-07 -0.3058842E-05  0.4888745E-05 -0.3842217E-07  0.1101984E-06 -0.2760073E+02 -0.1366933E+03  0.6306067E-13 -0.5342393E-12
  0.6039999E+01  0.9198116E+02  0.7014869E+03  0.2793968E-07 -0.1954753E-05 -0.2397574E-06  0.5776365E-05 -0.8729728E-08 -0.2668126E-06 -0.2730272E+02 -0.1350561E+03  0.3819167E-13 -0.5230482E-13