VARIABLES="w (rad/s)"  
"A   1   1" "B   1   1"
"A   1   2" "B   1   2"
"A   1   3" "B   1   3"
"A   1   4" "B   1   4"
"A   1   5" "B   1   5"
"A   1   6" "B   1   6"
Zone t="Motion of body    1 in DoF   1",I=    50,F=POINT
  0.1000000E+00  0.5912969E+06  0.4943506E-01 -0.5249023E-02 -0.1105946E-08 -0.1818848E-01 -0.8338669E-04 -0.8483887E-02  0.6868504E-09  0.1815250E+07  0.1527417E+00  0.2868652E-02  0.6402843E-10
  0.1387755E+00  0.5926231E+06  0.4907604E+00  0.4486084E-02  0.2261783E-09  0.3283691E-01  0.1289418E-03  0.3051758E-02 -0.8142420E-08  0.1820432E+07  0.1521717E+01  0.3356934E-02 -0.2584895E-09
  0.1775510E+00  0.5944354E+06  0.2725998E+01 -0.1068115E-02  0.3968575E-08 -0.7690430E-02 -0.4068226E-03  0.1855469E-01 -0.1091358E-06  0.1827524E+07  0.8473706E+01  0.3051758E-02 -0.2546502E-07
  0.2163265E+00  0.5967612E+06  0.1073745E+02  0.8850098E-03  0.2417637E-07  0.1782227E-01 -0.4133354E-03  0.4199219E-01  0.5157627E-07  0.1836557E+07  0.3346009E+02 -0.2441406E-02  0.3223517E-08
  0.2551020E+00  0.5996930E+06  0.3358087E+02  0.4272461E-02  0.3155093E-06  0.1196289E-01  0.9348806E-03  0.8789062E-02 -0.9199186E-06  0.1847927E+07  0.1049637E+03 -0.7202148E-02 -0.3231119E-06
  0.2938775E+00  0.6032616E+06  0.8896082E+02 -0.7019043E-03  0.8670651E-06  0.1977539E-01 -0.1798591E-03 -0.1434326E-01  0.4028787E-06  0.1861706E+07  0.2790786E+03  0.2746582E-02 -0.6130763E-06
  0.3326530E+00  0.6075696E+06  0.2079876E+03 -0.4150391E-02 -0.2775873E-06 -0.5981445E-02 -0.7303719E-03  0.1086426E-01 -0.6067266E-05  0.1878286E+07  0.6551331E+03  0.9521484E-02  0.5551747E-06
  0.3714286E+00  0.6126871E+06  0.4410583E+03  0.8850098E-03 -0.9298325E-06 -0.1953125E-01 -0.3626878E-02  0.1824951E-01 -0.1655987E-04  0.1897936E+07  0.1395682E+04 -0.4394531E-02 -0.3099442E-05
  0.4102041E+00  0.6187019E+06  0.8646791E+03 -0.9002686E-02  0.1467004E-05  0.2160645E-01  0.5878188E-02  0.4638672E-02 -0.1408324E-04  0.1921011E+07  0.2750211E+04 -0.2746582E-02  0.3912011E-05
  0.4489796E+00  0.6256946E+06  0.1589271E+04  0.1220703E-02  0.1156087E-04  0.2319336E-01  0.5383083E-02  0.1098633E-02  0.6979339E-04  0.1947841E+07  0.5083431E+04  0.2990723E-02 -0.8991787E-05
  0.4877551E+00  0.6337179E+06  0.2767442E+04  0.1678467E-02 -0.1744348E-05 -0.1892090E-01 -0.9814865E-03 -0.1989746E-01 -0.3488696E-04  0.1978635E+07  0.8906495E+04  0.1892090E-02  0.2279282E-04
  0.5265306E+00  0.6428249E+06  0.4602622E+04  0.7934570E-03 -0.9038497E-05  0.5615234E-02 -0.8596615E-03  0.2093506E-01  0.3213688E-04  0.2013722E+07  0.1491172E+05  0.2136230E-02 -0.2460480E-04
  0.5653061E+00  0.6530066E+06  0.7357134E+04 -0.4425049E-02 -0.7601563E-04 -0.2148438E-01 -0.9937022E-02 -0.1080322E-01 -0.2296642E-03  0.2053225E+07  0.2400781E+05 -0.1220703E-03 -0.2048648E-04
  0.6040816E+00  0.6642104E+06  0.1135919E+05 -0.8758545E-02  0.1031214E-03  0.2319336E-02 -0.4968262E-02  0.1092529E-01  0.3917461E-04  0.2097004E+07  0.3735315E+05  0.4882812E-03 -0.2304389E-04
  0.6428572E+00  0.6763505E+06  0.1700792E+05 -0.2563477E-02  0.8583070E-04  0.2807617E-02  0.5409786E-02  0.3479004E-02  0.4806519E-03  0.2145021E+07  0.5638895E+05 -0.4516602E-02  0.1226153E-04
  0.6816327E+00  0.6891833E+06  0.2477233E+05  0.7324219E-03  0.4017343E-03  0.1208496E-01 -0.7363830E-02 -0.6225586E-02  0.2392205E-03  0.2196554E+07  0.8284942E+05  0.3173828E-02 -0.2210189E-03
  0.7204082E+00  0.7024573E+06  0.3518726E+05 -0.2319336E-02 -0.1841253E-03 -0.4138184E-01 -0.2397477E-01  0.2014160E-02 -0.7419976E-03  0.2250916E+07  0.1187699E+06  0.2929688E-02  0.1703846E-03
  0.7591837E+00  0.7156997E+06  0.4883266E+05  0.1251221E-02  0.4083439E-03  0.1098633E-01  0.1537227E-01 -0.1403809E-02 -0.1453820E-02  0.2306582E+07  0.1664325E+06  0.2441406E-02  0.2201002E-03
  0.7979592E+00  0.7283979E+06  0.6630900E+05  0.1373291E-02 -0.4231122E-03  0.2380371E-01  0.1168886E-01 -0.9765625E-03  0.2678696E-03  0.2361924E+07  0.2283077E+06  0.3173828E-02 -0.8036088E-03
  0.8367347E+00  0.7398208E+06  0.8818166E+05  0.7141113E-02  0.6702968E-03  0.4882812E-02  0.7737141E-02 -0.4577637E-02  0.1034172E-02  0.2414282E+07  0.3068595E+06 -0.2319336E-02  0.8809615E-03
  0.8755102E+00  0.7491402E+06  0.1149207E+06  0.6408691E-02 -0.1335923E-02  0.1269531E-01  0.1001942E-01 -0.3216553E-01  0.0000000E+00  0.2460810E+07  0.4043662E+06 -0.5371094E-02  0.5477283E-03
  0.9142857E+00  0.7554132E+06  0.1468103E+06 -0.6591797E-02  0.1883371E-03 -0.1562500E-01  0.2678572E-02  0.2380371E-01  0.3571429E-02  0.2497845E+07  0.5225552E+06  0.5371094E-02  0.1395089E-02
  0.9530612E+00  0.7576582E+06  0.1838492E+06  0.1153564E-01 -0.3053938E-03 -0.2441406E-03  0.5642513E-02 -0.7934570E-03 -0.1047064E-02  0.2521546E+07  0.6622401E+06  0.6469727E-02  0.5817024E-03
  0.9918368E+00  0.7549558E+06  0.2256694E+06 -0.1141357E-01  0.1785839E-02 -0.1721191E-01  0.8354094E-02 -0.1605225E-01  0.1846376E-02  0.2528096E+07  0.8229641E+06 -0.1049805E-01 -0.2118792E-03
  0.1030612E+01  0.7464916E+06  0.2714468E+06  0.1647949E-02 -0.8334724E-03  0.1098633E-02  0.8114561E-02  0.1037598E-01  0.4403251E-03  0.2513682E+07  0.1002535E+07 -0.5004883E-02 -0.3962926E-02
  0.1069388E+01  0.7318021E+06  0.3199059E+06  0.2014160E-02  0.3035067E-02  0.6835938E-02 -0.2610810E-02  0.2197266E-02  0.4340472E-02  0.2475779E+07  0.1197005E+07  0.8544922E-03 -0.2545540E-02
  0.1108163E+01  0.7108157E+06  0.3693789E+06 -0.3051758E-02  0.1690923E-03  0.1464844E-02 -0.1947943E-01  0.1129150E-01  0.4768403E-02  0.2413108E+07  0.1400696E+07 -0.7324219E-03  0.1893834E-02
  0.1146939E+01  0.6838787E+06  0.4179334E+06  0.1586914E-02 -0.6055310E-02 -0.5859375E-02 -0.5250269E-02 -0.1403809E-02  0.2030104E-02  0.2325823E+07  0.1606553E+07  0.5615234E-02  0.2100108E-03
  0.1185714E+01  0.6518392E+06  0.4635852E+06 -0.1190186E-02 -0.5283029E-02  0.5493164E-02  0.2460589E-02  0.1611328E-01 -0.1338850E-01  0.2216247E+07  0.1806956E+07 -0.1464844E-02  0.2026367E-02
  0.1224490E+01  0.6158931E+06  0.5045245E+06 -0.5828857E-02 -0.5194217E-02 -0.2197266E-02 -0.3512636E-02 -0.8117676E-02  0.2772740E-01  0.2088075E+07  0.1994487E+07  0.5249023E-02 -0.2541055E-02
  0.1263265E+01  0.5774942E+06  0.5393238E+06  0.3204346E-02  0.3662421E-02  0.5310059E-02 -0.2852833E-02 -0.1538086E-01 -0.3203655E-01  0.1946231E+07  0.2162760E+07 -0.3906250E-02 -0.6476702E-02
  0.1302041E+01  0.5381108E+06  0.5670254E+06  0.1403809E-02 -0.4768216E-03 -0.4638672E-02 -0.5165567E-02 -0.3747559E-01 -0.5086097E-02  0.1796112E+07  0.2306948E+07 -0.4638672E-02  0.3178811E-02
  0.1340816E+01  0.4991410E+06  0.5872236E+06  0.1586914E-02  0.4132765E-02 -0.9643555E-02  0.3027967E-02 -0.4577637E-02 -0.1080248E-01  0.1643157E+07  0.2424217E+07 -0.2990723E-02  0.4910216E-03
  0.1379592E+01  0.4617666E+06  0.6000082E+06  0.5767822E-02 -0.4631198E-03 -0.5676270E-02  0.3031330E-02  0.1138306E-01  0.0000000E+00  0.1492195E+07  0.2513602E+07  0.3540039E-02 -0.1852479E-02
  0.1418367E+01  0.4268736E+06  0.6058589E+06 -0.2532959E-02  0.5713638E-02 -0.1855469E-01  0.1644835E-02  0.9979248E-02 -0.5107646E-02  0.1347107E+07  0.2575712E+07 -0.1953125E-02  0.1731406E-03
  0.1457143E+01  0.3950517E+06  0.6054995E+06  0.4638672E-02  0.2934919E-02 -0.3051758E-02  0.3157261E-02 -0.2319336E-02  0.8537946E-02  0.1210820E+07  0.2612369E+07 -0.2258301E-02  0.3379604E-02
  0.1495918E+01  0.3666370E+06  0.5998252E+06  0.9460449E-03 -0.8673843E-03  0.6530762E-02  0.9176013E-02  0.3814697E-02  0.1522488E-01  0.1085308E+07  0.2626239E+07 -0.3662109E-03 -0.8034718E-02
  0.1534694E+01  0.3417227E+06  0.5897620E+06  0.3067017E-02  0.4683514E-02  0.1892090E-02 -0.1779735E-02  0.2807617E-02 -0.7680963E-02  0.9715748E+06  0.2620328E+07 -0.1220703E-03  0.5807557E-02
  0.1573469E+01  0.3202680E+06  0.5762362E+06 -0.2746582E-03 -0.2448942E-02 -0.6103516E-04  0.7682956E-02 -0.1040649E-01  0.9771760E-02  0.8700210E+06  0.2597771E+07  0.6103516E-04 -0.3265256E-02
  0.1612245E+01  0.3020640E+06  0.5600523E+06 -0.1342773E-02 -0.6937455E-02 -0.1495361E-01  0.7872289E-03 -0.1342773E-02 -0.2632297E-02  0.7803609E+06  0.2561493E+07  0.1831055E-02  0.2361687E-02
  0.1651020E+01  0.2868647E+06  0.5419306E+06  0.3585815E-03  0.3778886E-02  0.1287842E-01  0.2393294E-02 -0.6072998E-02  0.2718279E-01  0.7021650E+06  0.2514338E+07  0.1800537E-02 -0.3426190E-02
  0.1689796E+01  0.2743872E+06  0.5225060E+06 -0.2883911E-02 -0.1237644E-02 -0.1831055E-03  0.1753328E-02  0.1068115E-02 -0.1688868E-01  0.6346454E+06  0.2458720E+07 -0.1007080E-02 -0.1443917E-02
  0.1728571E+01  0.2643281E+06  0.5022967E+06  0.2258301E-02 -0.3165109E-02  0.8239746E-02  0.1318795E-03  0.4547119E-02  0.2369875E-01  0.5769156E+06  0.2396745E+07  0.1342773E-02 -0.8018276E-02
  0.1767347E+01  0.2563922E+06  0.4817183E+06 -0.6332397E-03  0.4854163E-03  0.1678467E-01  0.8899299E-03  0.7934570E-03 -0.5042936E-01  0.5280551E+06  0.2330180E+07  0.1556396E-02 -0.1294444E-02
  0.1806122E+01  0.2502822E+06  0.4610848E+06 -0.5226135E-03 -0.1047251E-02  0.3662109E-02 -0.7578791E-03  0.9338379E-02  0.1044495E-01  0.4870459E+06  0.2260458E+07  0.6561279E-03  0.2866161E-02
  0.1844898E+01  0.2457479E+06  0.4406408E+06  0.1361847E-02  0.2815091E-03  0.1220703E-03  0.8726782E-03 -0.2868652E-02 -0.2621553E-01  0.4530735E+06  0.2188929E+07  0.2349854E-02  0.6756218E-03
  0.1883674E+01  0.2425596E+06  0.4205949E+06  0.1375198E-02 -0.1264673E-02  0.7568359E-02  0.4455099E-03  0.1647949E-02 -0.9837147E-02  0.4252941E+06  0.2116496E+07  0.1453400E-02 -0.4483842E-02
  0.1922449E+01  0.2404990E+06  0.4010656E+06  0.2705574E-02 -0.3285435E-02  0.9704590E-02  0.2478743E-02  0.5493164E-03 -0.5771512E-02  0.4029042E+06  0.2043959E+07  0.3383636E-02 -0.3637446E-02
  0.1961224E+01  0.2394001E+06  0.3822054E+06  0.1225471E-03  0.7182218E-03 -0.7629395E-02  0.2416517E-02 -0.8239746E-03  0.6299404E-02  0.3852758E+06  0.1971931E+07  0.7162094E-03 -0.2992591E-02
  0.2000000E+01  0.2390793E+06  0.3640304E+06 -0.2555132E-02 -0.3601074E-02 -0.6103516E-02 -0.2655029E-02 -0.7324219E-03 -0.2152252E-01  0.3716852E+06  0.1900823E+07  0.2003670E-02 -0.3662109E-03
Zone t="Motion of body    1 in DoF   2",I=    50,F=POINT
  0.1000000E+00 -0.5310059E-02  0.5064066E-09  0.5912969E+06  0.4961554E-01 -0.8087158E-03  0.9109499E-09 -0.1815250E+07 -0.1536343E+00 -0.1159668E-01  0.3376044E-09 -0.3784180E-02  0.3177032E-06
  0.1387755E+00  0.6103516E-04  0.7916242E-08  0.5926224E+06  0.4905159E+00 -0.1373291E-03 -0.7140773E-08 -0.1820432E+07 -0.1520806E+01 -0.2392578E-01  0.5816014E-08  0.7797241E-02  0.4227020E-04
  0.1775510E+00  0.3662109E-03  0.1273251E-07  0.5944351E+06  0.2726490E+01  0.3082275E-02 -0.9260008E-08 -0.1827524E+07 -0.8478594E+01  0.6103516E-03  0.9458437E-07 -0.7858276E-02  0.9464985E-04
  0.2163265E+00 -0.9704590E-02  0.8219967E-07  0.5967612E+06  0.1073776E+02  0.1525879E-02 -0.4714393E-07 -0.1836558E+07 -0.3346430E+02  0.2075195E-02 -0.7736440E-07  0.3097534E-02 -0.3541756E-03
  0.2551020E+00 -0.1342773E-02  0.2660922E-07  0.5996929E+06  0.3357912E+02 -0.2914429E-02  0.9693358E-07 -0.1847927E+07 -0.1049623E+03  0.5004883E-02 -0.3649264E-06  0.2201843E-01 -0.5053527E-03
  0.2938775E+00  0.2868652E-02 -0.5517687E-06  0.6032611E+06  0.8896044E+02 -0.5187988E-03 -0.7663454E-06 -0.1861705E+07 -0.2790640E+03  0.9399414E-02 -0.2662503E-05  0.5050659E-02 -0.3653037E-03
  0.3326530E+00 -0.6103516E-04 -0.6741407E-06  0.6075693E+06  0.2079879E+03  0.3295898E-02  0.9814695E-06 -0.1878286E+07 -0.6551262E+03 -0.2795410E-01 -0.4481053E-05 -0.1531982E-01  0.3232703E-03
  0.3714286E+00  0.7019043E-02 -0.5047662E-05  0.6126867E+06  0.4410632E+03  0.6591797E-02  0.7682187E-05 -0.1897936E+07 -0.1395695E+04 -0.1647949E-02 -0.3807885E-05 -0.1107788E-01  0.4110745E-03
  0.4102041E+00  0.1220703E-03 -0.7286120E-05  0.6187023E+06  0.8646805E+03  0.3311157E-02 -0.2298307E-05 -0.1921010E+07 -0.2750215E+04 -0.4455566E-02  0.1877765E-04  0.1499939E-01  0.1731896E-02
  0.4489796E+00 -0.7690430E-02 -0.2247947E-05  0.6256946E+06  0.1589270E+04  0.5279541E-02 -0.1509336E-04 -0.1947840E+07 -0.5083493E+04 -0.1226807E-01  0.3896441E-04  0.1939392E-01  0.2678268E-02
  0.4877551E+00 -0.1013184E-01 -0.1651316E-04  0.6337178E+06  0.2767437E+04 -0.3173828E-02  0.4814401E-04 -0.1978636E+07 -0.8906512E+04 -0.2502441E-02 -0.1781561E-03 -0.5004883E-02 -0.5061110E-02
  0.5265306E+00  0.5493164E-02 -0.8486144E-04  0.6428246E+06  0.4602619E+04  0.3906250E-02  0.2435373E-04 -0.2013722E+07 -0.1491169E+05 -0.1892090E-01 -0.7431653E-04  0.6530762E-02 -0.4217840E-02
  0.5653061E+00  0.4577637E-02 -0.5822474E-04  0.6530064E+06  0.7357148E+04  0.1296997E-02 -0.6361592E-04 -0.2053224E+07 -0.2400773E+05  0.3271484E-01  0.7655474E-04 -0.3601074E-02 -0.1353456E-02
  0.6040816E+00 -0.4028320E-02  0.9217554E-04  0.6642106E+06  0.1135917E+05 -0.1678467E-03 -0.1319262E-03 -0.2097004E+07 -0.3735311E+05  0.2416992E-01 -0.1175238E-03  0.3662109E-02  0.7136403E-02
  0.6428572E+00 -0.9155273E-03 -0.1164845E-03  0.6763504E+06  0.1700791E+05  0.7476807E-03  0.2366475E-03 -0.2145021E+07 -0.5638894E+05  0.2441406E-03  0.2599444E-03 -0.1971436E-01 -0.5103248E-02
  0.6816327E+00  0.5554199E-02 -0.7280623E-04  0.6891832E+06  0.2477236E+05  0.4943848E-02  0.5720489E-04 -0.2196553E+07 -0.8284949E+05  0.9338379E-02 -0.4992427E-03  0.2481079E-01  0.3370538E-02
  0.7204082E+00 -0.8605957E-02  0.3022953E-04  0.7024574E+06  0.3518729E+05 -0.8087158E-03  0.2954250E-03 -0.2250916E+07 -0.1187700E+06  0.1824951E-01  0.4177172E-03 -0.1872253E-01 -0.4747410E-02
  0.7591837E+00 -0.6958008E-02  0.6950535E-04  0.7156994E+06  0.4883266E+05 -0.4821777E-02 -0.1332186E-03 -0.2306581E+07 -0.1664324E+06 -0.3472900E-01 -0.1569662E-02  0.1473999E-01 -0.7864240E-02
  0.7979592E+00  0.9399414E-02 -0.4383321E-03  0.7283984E+06  0.6630905E+05 -0.5325317E-02  0.6087946E-04 -0.2361924E+07 -0.2283078E+06 -0.1641846E-01 -0.2581289E-02 -0.8193970E-02 -0.1333260E-02
  0.8367347E+00  0.6042480E-02 -0.4468645E-03  0.7398207E+06  0.8818166E+05 -0.5798340E-03 -0.3096133E-03 -0.2414283E+07 -0.3068595E+06  0.2239990E-01  0.3574916E-02  0.7553101E-02 -0.8107400E-02
  0.8755102E+00  0.4638672E-02  0.5744467E-03  0.7491401E+06  0.1149207E+06  0.2944946E-02  0.4274952E-03 -0.2460810E+07 -0.4043664E+06  0.1116943E-01  0.4274952E-03 -0.1936340E-01 -0.1797150E-01
  0.9142857E+00 -0.3479004E-02  0.1395089E-03  0.7554135E+06  0.1468103E+06 -0.5889893E-02  0.1998466E-02 -0.2497844E+07 -0.5225550E+06  0.4858398E-01 -0.4631696E-02  0.7354736E-02 -0.1747349E-02
  0.9530612E+00  0.2624512E-02  0.5817024E-04  0.7576580E+06  0.1838492E+06 -0.2273560E-02  0.2981225E-03 -0.2521548E+07 -0.6622402E+06  0.8605957E-02 -0.5031726E-02  0.3356934E-02 -0.1114687E-01
  0.9918368E+00 -0.3662109E-02 -0.1241007E-02  0.7549555E+06  0.2256696E+06 -0.7476807E-03  0.2020420E-02 -0.2528096E+07 -0.8229642E+06  0.3350830E-01  0.4298121E-02 -0.3753662E-02 -0.1166092E-01
  0.1030612E+01  0.1464844E-02  0.3616956E-02  0.7464915E+06  0.2714468E+06 -0.6866455E-03 -0.1501823E-02 -0.2513680E+07 -0.1002535E+07  0.1745605E-01  0.1676380E-01  0.6927490E-02  0.2492554E-02
  0.1069388E+01  0.3295898E-02  0.5221620E-02  0.7318021E+06  0.3199061E+06 -0.5798340E-03  0.2178395E-02 -0.2475779E+07 -0.1197005E+07 -0.1342773E-02 -0.4993174E-02 -0.4669189E-02 -0.1039429E-01
  0.1108163E+01 -0.2929688E-02  0.2401110E-02  0.7108159E+06  0.3693792E+06  0.2334595E-02  0.4066669E-02 -0.2413107E+07 -0.1400697E+07  0.8972168E-02  0.4464036E-02  0.3479004E-02  0.2108581E-01
  0.1146939E+01  0.2319336E-02 -0.2800144E-02  0.6838782E+06  0.4179333E+06  0.1861572E-02  0.1251314E-02 -0.2325823E+07 -0.1606553E+07  0.1898193E-01 -0.6650341E-02 -0.1135254E-01  0.2135109E-02
  0.1185714E+01  0.1098633E-02  0.2026367E-02  0.6518385E+06  0.4635850E+06 -0.3265381E-02  0.1546914E-02 -0.2216247E+07 -0.1806956E+07 -0.2056885E-01 -0.3365217E-02 -0.1098633E-02 -0.1384081E-01
  0.1224490E+01 -0.5859375E-02 -0.3662109E-02  0.6158932E+06  0.5045248E+06  0.3021240E-02 -0.1401317E-02 -0.2088076E+07 -0.1994487E+07 -0.2441406E-01  0.5381059E-02 -0.3112793E-02 -0.4932637E-02
  0.1263265E+01 -0.4272461E-02 -0.4240698E-02  0.5774944E+06  0.5393237E+06  0.6561279E-03 -0.2023969E-03 -0.1946230E+07 -0.2162758E+07  0.1269531E-01 -0.2039390E-01  0.5493164E-03  0.7016427E-02
  0.1302041E+01  0.2380371E-02  0.3735102E-02  0.5381108E+06  0.5670251E+06  0.2517700E-03  0.1192054E-03 -0.1796112E+07 -0.2306947E+07 -0.1269531E-01 -0.1438412E-01 -0.6027222E-02  0.5145700E-02
  0.1340816E+01  0.1525879E-02 -0.4910216E-03  0.4991407E+06  0.5872237E+06 -0.1426697E-02  0.2434649E-02 -0.1643158E+07 -0.2424217E+07 -0.4425049E-02  0.4374184E-01 -0.9155273E-03 -0.1070018E-01
  0.1379592E+01 -0.9460449E-03  0.1414621E-01  0.4617665E+06  0.6000083E+06 -0.2487183E-02  0.1189376E-02 -0.1492195E+07 -0.2513601E+07  0.7934570E-02 -0.6416315E-01 -0.1020813E-01 -0.1909317E-01
  0.1418367E+01  0.3631592E-02 -0.2077687E-02  0.4268738E+06  0.6058592E+06 -0.6866455E-03  0.8981666E-03 -0.1347106E+07 -0.2575712E+07  0.4364014E-02  0.4588224E-02 -0.3631592E-02 -0.1404603E-01
  0.1457143E+01  0.2227783E-02 -0.8893694E-03  0.3950515E+06  0.6054996E+06  0.6179810E-03 -0.2101135E-02 -0.1210821E+07 -0.2612368E+07  0.2624512E-01  0.1245117E-01  0.6256104E-03 -0.1489694E-01
  0.1495918E+01 -0.1007080E-02 -0.1095643E-02  0.3666368E+06  0.5998252E+06  0.2136230E-02 -0.1860311E-02 -0.1085307E+07 -0.2626239E+07  0.1770020E-02  0.1148143E-01 -0.4058838E-02 -0.2533675E-02
  0.1534694E+01 -0.3387451E-02 -0.3840481E-02  0.3417224E+06  0.5897616E+06  0.8926392E-03 -0.7493622E-03 -0.9715743E+06 -0.2620328E+07  0.3875732E-02  0.3170739E-01 -0.2174377E-02 -0.2903779E-02
  0.1573469E+01  0.4577637E-03  0.3073182E-02  0.3202680E+06  0.5762364E+06 -0.2601624E-02 -0.6902656E-03 -0.8700204E+06 -0.2597771E+07  0.1269531E-01  0.1029996E-01 -0.5149841E-02  0.8259178E-02
  0.1612245E+01 -0.4119873E-03 -0.5904217E-03  0.3020638E+06  0.5600522E+06 -0.3341675E-02 -0.1230045E-04 -0.7803608E+06 -0.2561492E+07  0.1251221E-02  0.3203038E-01 -0.5462646E-02  0.5166190E-03
  0.1651020E+01 -0.5310059E-02  0.1914636E-02  0.2868646E+06  0.5419303E+06  0.2288818E-04  0.1458020E-02 -0.7021650E+06 -0.2514338E+07 -0.6805420E-02  0.4786589E-02  0.1731873E-02 -0.7482194E-02
  0.1689796E+01  0.1632690E-02 -0.3300383E-02  0.2743873E+06  0.5225062E+06  0.3280640E-02  0.4931236E-03 -0.6346450E+06 -0.2458720E+07  0.4547119E-02  0.1670819E-01  0.4158020E-03 -0.7013313E-02
  0.1728571E+01 -0.1029968E-02  0.4642160E-02  0.2643280E+06  0.5022968E+06  0.6248474E-02 -0.2703530E-03 -0.5769158E+06 -0.2396745E+07  0.2624512E-02 -0.4075078E-01  0.4417419E-02  0.1477051E-02
  0.1767347E+01 -0.2639771E-02  0.2049536E-02  0.2563922E+06  0.4817184E+06  0.3128052E-03 -0.7753177E-04 -0.5280549E+06 -0.2330181E+07 -0.6378174E-02  0.1578951E-01 -0.3925323E-02  0.1218934E-01
  0.1806122E+01 -0.3623962E-03  0.1102370E-02  0.2502822E+06  0.4610847E+06  0.2433777E-02  0.4151111E-03 -0.4870457E+06 -0.2260456E+07 -0.2166748E-02  0.2226787E-01  0.6780624E-02  0.7330758E-02
  0.1844898E+01  0.7629395E-03 -0.2139469E-02  0.2457479E+06  0.4406408E+06  0.2014160E-02 -0.1337168E-03 -0.4530736E+06 -0.2188929E+07 -0.6408691E-03 -0.6179125E-02  0.2156258E-02 -0.3237355E-02
  0.1883674E+01 -0.1295090E-02 -0.2874258E-02  0.2425595E+06  0.4205948E+06 -0.1991272E-02 -0.1796411E-03 -0.4252939E+06 -0.2116498E+07  0.2166748E-02  0.3121444E-01  0.1916885E-03 -0.3190426E-02
  0.1922449E+01 -0.2586365E-02  0.0000000E+00  0.2404990E+06  0.4010655E+06 -0.6103516E-04 -0.1631717E-03 -0.4029043E+06 -0.2043959E+07  0.1251221E-02  0.4913485E-01 -0.3779888E-02  0.6365531E-02
  0.1961224E+01  0.2822876E-03 -0.1316740E-02  0.2394000E+06  0.3822054E+06 -0.1190186E-02 -0.1692684E-03 -0.3852756E+06 -0.1971932E+07  0.6652832E-02  0.1084814E-01 -0.4851222E-02 -0.1496295E-03
  0.2000000E+01  0.5474091E-03 -0.4882812E-03  0.2390793E+06  0.3640305E+06  0.5111694E-03  0.2908707E-03 -0.3716850E+06 -0.1900823E+07  0.1556396E-02  0.1708603E-01 -0.3763676E-02 -0.4669189E-02
Zone t="Motion of body    1 in DoF   3",I=    50,F=POINT
  0.1000000E+00  0.6469727E-02  0.1029968E-04  0.5317688E-02  0.6244182E-04  0.2784084E+06  0.3015647E+03 -0.2166748E+00  0.1798630E-03  0.5957031E-01 -0.6713867E-04 -0.1525879E-04  0.6675720E-06
  0.1387755E+00 -0.8178711E-02  0.4499786E-04  0.8392334E-02 -0.1237441E-04  0.2796682E+06  0.7854136E+03 -0.2658691E+00  0.1283762E-02 -0.5175781E-01  0.1270528E-04 -0.2288818E-03 -0.2646933E-05
  0.1775510E+00  0.2929688E-01 -0.1151416E-03  0.9384155E-03  0.1964180E-03  0.2805442E+06  0.1589286E+04 -0.6499023E+00  0.8202145E-02  0.9375000E-01  0.2037329E-02 -0.4577637E-04 -0.4063821E-05
  0.2163265E+00  0.1782227E-01  0.4373667E-03  0.4356384E-02  0.3672230E-04  0.2808872E+06  0.2753558E+04 -0.2232666E+00 -0.1140454E-02  0.2148438E-01 -0.6073621E-03 -0.4577637E-03  0.6601762E-05
  0.2551020E+00 -0.2258301E-02  0.9964923E-03 -0.8926392E-02  0.2238215E-03  0.2805076E+06  0.4288282E+04 -0.4157715E+00 -0.3464368E-02  0.2929688E-01 -0.2491231E-03  0.6103516E-04  0.1946274E-05
  0.2938775E+00 -0.5493164E-02  0.9372010E-03  0.1495361E-02 -0.6233060E-03  0.2794091E+06  0.6172285E+04  0.6220703E+00 -0.5542490E-02 -0.6054688E-01  0.9363042E-02 -0.1068115E-03  0.4484215E-05
  0.3326530E+00  0.4302979E-01  0.1380640E-02 -0.1097107E-01 -0.4003602E-03  0.2775306E+06  0.8355192E+04  0.2656250E+00 -0.1340033E-02  0.8886719E-01 -0.5766203E-02  0.3051758E-04 -0.1776559E-04
  0.3714286E+00 -0.7934570E-02 -0.1156180E-02  0.1486969E-01  0.3433119E-02  0.2749270E+06  0.1076165E+05 -0.5336914E+00 -0.4700666E-01  0.2929688E-02 -0.2584403E-02 -0.6103516E-04  0.3967285E-04
  0.4102041E+00  0.8544922E-03  0.1013993E-02 -0.1892090E-02  0.1167344E-02  0.2716690E+06  0.1329763E+05 -0.5238037E+00  0.4782042E-01  0.4101562E-01 -0.5708406E-02  0.2136230E-03  0.6259218E-05
  0.4489796E+00 -0.9643555E-02 -0.3370635E-02  0.9544373E-02 -0.4418821E-03  0.2678535E+06  0.1585787E+05  0.4904785E+00 -0.2014160E-02  0.9765625E-03 -0.1655174E-01  0.0000000E+00  0.6850885E-04
  0.4877551E+00 -0.1708984E-01 -0.7025769E-02 -0.1677704E-01 -0.6065680E-03  0.2636744E+06  0.1833297E+05 -0.3223877E+00 -0.4272025E-02  0.1953125E-02 -0.2024374E-02 -0.3051758E-04  0.7442552E-04
  0.5265306E+00 -0.1828003E-01 -0.1928213E-03  0.7820129E-03  0.4896857E-02  0.2592528E+06  0.2061824E+05 -0.4907227E-01  0.2847327E-01  0.3320312E-01  0.1336894E-01 -0.4577637E-04  0.8034220E-05
  0.5653061E+00 -0.8239746E-03 -0.5451560E-02 -0.2742767E-02  0.4144739E-02  0.2546364E+06  0.2262195E+05  0.1695557E+00  0.3384798E-01  0.6835938E-02  0.2346241E-01 -0.4577637E-04 -0.5175532E-04
  0.6040816E+00 -0.1428223E-01 -0.4793128E-02 -0.3456116E-02  0.5484445E-03  0.2501088E+06  0.2426427E+05  0.3515625E-01 -0.8679249E-01 -0.2441406E-01 -0.1371572E-01  0.4577637E-04 -0.6452288E-04
  0.6428572E+00  0.1165771E-01  0.4237584E-02  0.1421356E-01 -0.5473546E-02  0.2456908E+06  0.2549077E+05  0.8764648E-01  0.4835946E-01  0.2441406E-01  0.0000000E+00  0.0000000E+00 -0.7847378E-04
  0.6816327E+00  0.5157471E-02  0.5408463E-02  0.2826691E-02 -0.3515501E-02  0.2415657E+06  0.2626527E+05  0.1159668E+00  0.2361002E-01 -0.2929688E-01  0.2845683E-01 -0.1220703E-03  0.7280623E-04
  0.7204082E+00  0.3051758E-04 -0.9937271E-02  0.1552963E-01  0.1275137E-02  0.2377864E+06  0.2657748E+05 -0.5615234E-02  0.8816031E-02  0.1337891E+00 -0.4273906E-01 -0.3051758E-04  0.4397023E-04
  0.7591837E+00 -0.1724243E-02  0.6255481E-02 -0.1340675E-01  0.9221043E-02  0.2344525E+06  0.2643673E+05 -0.7678223E-01  0.5087791E-01 -0.3710938E-01 -0.2465123E-01 -0.1525879E-04  0.1158422E-04
  0.7979592E+00  0.9155273E-04  0.1850736E-02 -0.2429962E-02  0.2301243E-02  0.2315352E+06  0.2587599E+05 -0.7177734E-01 -0.3794008E-01  0.4296875E-01  0.8377013E-02  0.6484985E-04  0.4870356E-04
  0.8367347E+00 -0.2037048E-01  0.5515585E-02  0.3528595E-02 -0.1039918E-01  0.2291921E+06  0.2493595E+05 -0.1652832E+00 -0.1278033E+00 -0.2832031E-01  0.8171237E-03  0.2670288E-04 -0.2553512E-04
  0.8755102E+00  0.1576614E-01 -0.1015301E-02 -0.9584427E-03  0.6866642E-02  0.2272319E+06  0.2368012E+05 -0.4931641E-01  0.2482144E-01  0.3515625E-01 -0.2426035E-01 -0.9536743E-04  0.6679613E-04
  0.9142857E+00  0.1523590E-01 -0.1729911E-02 -0.2919197E-02  0.7024275E-02  0.2258558E+06  0.2217226E+05  0.3906250E-02  0.5066964E-01  0.8789062E-01 -0.6808036E-02  0.1454353E-04  0.8370536E-04
  0.9530612E+00  0.9296417E-02 -0.6922259E-02 -0.4495621E-02 -0.1964700E-01  0.2248838E+06  0.2047901E+05 -0.1082764E+00  0.5947907E-01 -0.2832031E-01  0.6049705E-01 -0.2861023E-05  0.1745107E-03
  0.9918368E+00  0.1430511E-01  0.2245919E-01 -0.1022339E-02 -0.4752147E-02  0.2242287E+06  0.1866636E+05 -0.7006836E-01  0.2482013E-01  0.5859375E-01  0.2082470E-01 -0.1525879E-04 -0.6053691E-04
  0.1030612E+01 -0.1575470E-01  0.5629870E-02  0.9630203E-02  0.7689963E-02  0.2240677E+06  0.1681315E+05 -0.1831055E-01  0.7007459E-01 -0.4785156E-01  0.0000000E+00 -0.3814697E-05 -0.9435537E-04
  0.1069388E+01 -0.5722046E-02  0.7734525E-02 -0.3482819E-02  0.3806072E-02  0.2241311E+06  0.1495464E+05  0.2016602E+00 -0.3836259E-01 -0.3320312E-01  0.2982851E-01 -0.3051758E-04 -0.4895269E-04
  0.1108163E+01 -0.1678467E-02 -0.4092033E-02  0.2689362E-03 -0.7186423E-04  0.2243530E+06  0.1313079E+05  0.1125488E+00  0.8900173E-01 -0.5664062E-01  0.7981156E-02  0.0000000E+00  0.6763692E-04
  0.1146939E+01 -0.1495361E-02 -0.9065465E-02 -0.5416870E-02 -0.8312926E-03  0.2249087E+06  0.1143523E+05  0.1536865E+00  0.7724896E-01  0.5273438E-01 -0.3367173E-01 -0.1525879E-04  0.1050054E-03
  0.1185714E+01 -0.1693726E-02 -0.5138289E-02  0.9174347E-03  0.1133499E-01  0.2255581E+06  0.9842722E+04  0.4895020E-01  0.5751627E-01  0.0000000E+00 -0.1852679E-01 -0.7629395E-05  0.3618513E-04
  0.1224490E+01 -0.5935669E-02  0.7137376E-02  0.5947113E-02 -0.1490067E-02  0.2262410E+06  0.8357555E+04  0.3649902E-01 -0.4045136E-02  0.1660156E-01  0.1599370E-01 -0.1525879E-04 -0.1868423E-04
  0.1263265E+01  0.4440308E-02  0.7556153E-02 -0.3013611E-02  0.6255030E-02  0.2270156E+06  0.7038160E+04  0.4040527E-01  0.2728022E-01  0.2441406E-01  0.2143480E-01 -0.7629395E-05  0.1349313E-03
  0.1302041E+01 -0.1509094E-01  0.2543048E-02  0.2317429E-02 -0.5349342E-02  0.2278684E+06  0.5904572E+04  0.6750488E-01  0.1673842E-01  0.4882812E-02  0.2789406E-01  0.0000000E+00 -0.5960270E-04
  0.1340816E+01 -0.2441406E-02  0.2455108E-03  0.2309799E-02 -0.5677437E-02  0.2286849E+06  0.4882376E+04  0.8190918E-01  0.4303600E-01  0.4296875E-01  0.1002502E-01  0.5340576E-04  0.2045923E-04
  0.1379592E+01 -0.3265381E-02  0.7157306E-03  0.1340866E-02 -0.8744018E-02  0.2294500E+06  0.3959104E+04 -0.8300781E-02  0.8894005E-03  0.1269531E-01  0.2589261E-02 -0.7629395E-05  0.4210180E-04
  0.1418367E+01  0.3631592E-02  0.5345714E-02  0.1663208E-02 -0.5951707E-03  0.2302231E+06  0.3215802E+04 -0.1450195E+00  0.1565028E-01  0.1855469E-01  0.6103205E-02 -0.1525879E-04  0.0000000E+00
  0.1457143E+01  0.4013062E-02 -0.5847604E-02 -0.4636765E-02  0.5822590E-02  0.2309737E+06  0.2623342E+04 -0.5444336E-01 -0.2857655E-01  0.3515625E-01 -0.3028303E-01  0.3814697E-04 -0.3890991E-04
  0.1495918E+01 -0.2029419E-02 -0.7349941E-02 -0.2443314E-02 -0.1221186E-02  0.2316590E+06  0.2096303E+04  0.2692871E+00 -0.8108902E-02 -0.6250000E-01 -0.3518613E-01 -0.1525879E-04  0.5706476E-05
  0.1534694E+01  0.0000000E+00  0.2575933E-03  0.3128052E-02  0.1525069E-02  0.2322819E+06  0.1625773E+04 -0.8508301E-01 -0.1303334E-01  0.3906250E-02 -0.1533851E-02  0.7629395E-05 -0.5854392E-05
  0.1573469E+01  0.3402710E-02 -0.4129589E-02 -0.7770538E-02  0.1655137E-02  0.2328628E+06  0.1234835E+04 -0.2438965E+00  0.5411832E-02  0.2050781E-01 -0.6260409E-02  0.7629395E-05  0.1200462E-04
  0.1612245E+01  0.3784180E-02  0.7749285E-03 -0.1985550E-02 -0.1469904E-02  0.2334104E+06  0.9901440E+03  0.3405762E-01 -0.1247420E-01  0.9765625E-03 -0.3191967E-02  0.1525879E-04  0.1845068E-04
  0.1651020E+01 -0.8270264E-02 -0.5731310E-02  0.1277924E-03  0.5811612E-02  0.2339013E+06  0.7611318E+03  0.6420898E-01  0.1652475E-01 -0.8789062E-02 -0.4118986E-01  0.7247925E-04 -0.9447214E-05
  0.1689796E+01 -0.3402710E-02 -0.7516106E-02  0.1581192E-02  0.1769444E-02  0.2343472E+06  0.5549252E+03  0.8288574E-01 -0.6511729E-02  0.3222656E-01 -0.4014929E-01  0.6484985E-04 -0.3223030E-05
  0.1728571E+01 -0.3265381E-02 -0.1068224E-02 -0.1735687E-02 -0.1287474E-02  0.2347545E+06  0.3881681E+03  0.1198730E+00  0.8441115E-02  0.3906250E-02 -0.1098886E-01 -0.6484985E-04 -0.1318795E-04
  0.1767347E+01 -0.2090454E-02  0.1348379E-03  0.5317688E-02 -0.1131795E-02  0.2351301E+06  0.2851117E+03  0.2084961E+00 -0.4688144E-02 -0.2929688E-01  0.9236394E-03 -0.9536743E-04  0.3370947E-05
  0.1806122E+01 -0.6439209E-02  0.1253946E-02 -0.4348755E-03 -0.2506168E-03  0.2354695E+06  0.1998400E+03  0.1141357E+00  0.4744065E-02  0.0000000E+00  0.1039672E-01  0.3814697E-05  0.1033472E-04
  0.1844898E+01 -0.1370239E-01 -0.1266791E-02  0.6942749E-03  0.4345796E-03  0.2357792E+06  0.1038965E+03 -0.1917725E+00  0.9283752E-02 -0.5468750E-01 -0.7495180E-02  0.1029968E-03  0.0000000E+00
  0.1883674E+01  0.2502441E-02 -0.9988046E-03  0.7810593E-02 -0.1232338E-02  0.2360626E+06  0.2105732E+02  0.1263428E+00  0.2047010E-02  0.2929688E-02 -0.5917603E-02 -0.1525879E-04 -0.3592822E-05
  0.1922449E+01  0.5905151E-02  0.2673083E-02  0.2010345E-02  0.2108399E-04  0.2363168E+06 -0.3621846E+02 -0.4614258E-01 -0.7558752E-02  0.6542969E-01  0.1706244E-01  0.6866455E-04  0.0000000E+00
  0.1961224E+01 -0.7553101E-03  0.7743329E-03 -0.5149841E-04  0.3520970E-03  0.2365393E+06 -0.2556366E+02  0.1712646E+00  0.6102986E-02  0.6835938E-02  0.7633445E-04  0.3814697E-04  0.4675923E-05
  0.2000000E+01  0.4165649E-02 -0.2555847E-03  0.2362251E-02 -0.2741814E-03  0.2367484E+06 -0.1054690E+02  0.8386230E-01 -0.4850030E-02  0.4882812E-02 -0.6235182E-02 -0.7629395E-04 -0.3814697E-05
Zone t="Motion of body    1 in DoF   4",I=    50,F=POINT
  0.1000000E+00 -0.3662109E-02 -0.1594890E-08 -0.1812016E+07 -0.1523503E+00 -0.2728271E-01 -0.8672942E-09  0.8245832E+07  0.4731211E+00  0.1093750E+00 -0.1350418E-08  0.3033447E-01  0.4569682E-04