VARIABLES="w (rad/s)"  
"abs(F   1   1)" "angle(F   1   1)"
"abs(F   1   2)" "angle(F   1   2)"
"abs(F   1   3)" "angle(F   1   3)"
"abs(F   1   4)" "angle(F   1   4)"
"abs(F   1   5)" "angle(F   1   5)"
"abs(F   1   6)" "angle(F   1   6)"
Zone t="Diffraction force - beta =   0.000 deg",I=   308,F=POINT
  0.3000000E-01  0.1807929E+02 -0.1570796E+01  0.4951212E-04 -0.2151112E-02  0.1795610E+03 -0.3140658E+01  0.1373789E-03 -0.9208902E-03  0.6394312E+02 -0.1570796E+01  0.5066538E-11  0.2245537E+01
  0.6000000E-01  0.7224646E+02 -0.1570796E+01  0.4865406E-05 -0.1012411E+00  0.7212061E+03 -0.3137878E+01  0.4541646E-03  0.3134089E+01  0.2554517E+03 -0.1570796E+01  0.2925016E-10  0.1563334E+01
  0.9000000E-01  0.1622872E+03 -0.1570796E+01  0.1996952E-03 -0.3138933E+01  0.1631376E+04 -0.3133312E+01  0.2954664E-03 -0.5835169E-01  0.5735630E+03 -0.1570796E+01  0.2420791E-10 -0.1768192E+01
  0.1200000E+00  0.2878557E+03 -0.1570795E+01  0.7517159E-03  0.3115786E+01  0.2917648E+04 -0.3127042E+01  0.5668665E-02  0.3626409E-03  0.1016671E+04 -0.1570795E+01  0.7432542E-10  0.1664913E+01
  0.1500000E+00  0.4484481E+03 -0.1570794E+01  0.7012159E-03 -0.2842100E-01  0.4587536E+04 -0.3119165E+01  0.5176689E-02 -0.3139389E+01  0.1582532E+04 -0.1570794E+01  0.1324675E-09 -0.1525467E+01
  0.1800000E+00  0.6434273E+03 -0.1570792E+01  0.3054212E-03 -0.3092130E+01  0.6647624E+04 -0.3109789E+01  0.5711372E-02  0.3108223E+01  0.2268284E+04 -0.1570792E+01  0.4326381E-10  0.3096169E+01
  0.2100000E+00  0.8720361E+03 -0.1570785E+01  0.1779552E-02  0.2206499E-01  0.9102942E+04 -0.3099027E+01  0.2591913E-02  0.3012795E+01  0.3070386E+04 -0.1570785E+01  0.1092672E-09  0.1927930E+01
  0.2400000E+00  0.1133357E+04 -0.1570773E+01  0.2321765E-02 -0.3088277E+01  0.1195641E+05 -0.3086999E+01  0.7512876E-02  0.3093939E+01  0.3984777E+04 -0.1570773E+01  0.4080652E-09  0.1450688E+01
  0.2700000E+00  0.1426323E+04 -0.1570749E+01  0.2016766E-02  0.3138772E+01  0.1520864E+05 -0.3073824E+01  0.6712482E-02 -0.2029663E-01  0.5006658E+04 -0.1570749E+01  0.2981024E-09  0.1398605E+01
  0.3000000E+00  0.1749743E+04 -0.1570709E+01  0.4990871E-02 -0.2313813E-01  0.1885741E+05 -0.3059624E+01  0.6036133E-02 -0.1445346E+00  0.6130671E+04 -0.1570708E+01  0.3926591E-09 -0.1425755E+01
  0.3300000E+00  0.2102271E+04 -0.1570643E+01  0.1415080E-02 -0.4145506E+00  0.2289772E+05 -0.3044519E+01  0.1589813E-01  0.3109479E+01  0.7350879E+04 -0.1570642E+01  0.2695724E-09  0.1234962E+01
  0.3600000E+00  0.2482487E+04 -0.1570540E+01  0.6133370E-03  0.1678231E+00  0.2732181E+05 -0.3028627E+01  0.1872800E-01  0.3121861E+01  0.8660832E+04 -0.1570538E+01  0.4875430E-09  0.2003204E+01
  0.3900000E+00  0.2888803E+04 -0.1570387E+01  0.8182014E-02 -0.3018665E+01  0.3211862E+05 -0.3012064E+01  0.7724951E-02  0.2135523E+00  0.1005330E+05 -0.1570382E+01  0.4842702E-09  0.1942598E+01
  0.4200000E+00  0.3319386E+04 -0.1570164E+01  0.3276934E-02 -0.2639935E+01  0.3727445E+05 -0.2994941E+01  0.1058528E-01  0.3115196E+01  0.1152035E+05 -0.1570157E+01  0.1831758E-09 -0.2056828E+01
  0.4500000E+00  0.3772348E+04 -0.1569851E+01  0.1063564E-01  0.3103323E+01  0.4277330E+05 -0.2977366E+01  0.2311079E-01  0.2953360E+01  0.1305400E+05 -0.1569838E+01  0.5193475E-09  0.3053216E+01
  0.4800000E+00  0.4245749E+04 -0.1569422E+01  0.6732333E-02 -0.3007192E+01  0.4859609E+05 -0.2959440E+01  0.1297319E-01 -0.1703234E+01  0.1464495E+05 -0.1569400E+01  0.8528755E-09  0.1611757E+01
  0.5100000E+00  0.4737080E+04 -0.1568846E+01  0.7947391E-02 -0.5232381E+00  0.5472203E+05 -0.2941264E+01  0.2272715E-01 -0.2796066E+01  0.1628353E+05 -0.1568809E+01  0.2680993E-09 -0.1487655E+01
  0.5400000E+00  0.5244292E+04 -0.1568087E+01  0.8546301E-02  0.7995732E-01  0.6112811E+05 -0.2922925E+01  0.1153730E-01 -0.2607800E+01  0.1795954E+05 -0.1568030E+01  0.1596129E-08 -0.1536327E+01
  0.5700000E+00  0.5764302E+04 -0.1567106E+01  0.5776398E-02 -0.2056569E+00  0.6779005E+05 -0.2904513E+01  0.1723591E-01  0.3049393E+01  0.1966147E+05 -0.1567019E+01  0.1613954E-08 -0.1647962E+01
  0.6000000E+00  0.6294693E+04 -0.1565859E+01  0.9085173E-02 -0.1434096E+00  0.7468204E+05 -0.2886105E+01  0.4296258E-02 -0.3335154E+00  0.2137749E+05 -0.1565728E+01  0.1099050E-08  0.8923333E+00
  0.6299999E+00  0.6831857E+04 -0.1564296E+01  0.2752074E-02 -0.2912843E+01  0.8177762E+05 -0.2867774E+01  0.7022616E-01 -0.2985185E+01  0.2309451E+05 -0.1564103E+01  0.7380430E-09 -0.1682825E+01
  0.6600000E+00  0.7372637E+04 -0.1562363E+01  0.2119472E-01 -0.2886550E+00  0.8904921E+05 -0.2849588E+01  0.1037490E+00 -0.3036575E+01  0.2479796E+05 -0.1562084E+01  0.4354874E-09  0.7229794E+00
  0.6899999E+00  0.7913166E+04 -0.1560004E+01  0.5227311E-02 -0.1274755E+01  0.9646982E+05 -0.2831606E+01  0.4168755E-01  0.2901473E+01  0.2647357E+05 -0.1559607E+01  0.2810354E-08 -0.1808843E+01
  0.7200000E+00  0.8448981E+04 -0.1557157E+01  0.7809439E-02  0.2794447E+01  0.1040112E+06 -0.2813882E+01  0.1240881E-01 -0.8594741E+00  0.2810332E+05 -0.1556599E+01  0.4361661E-09 -0.2720929E+01
  0.7500000E+00  0.8975865E+04 -0.1553760E+01  0.1442891E-01  0.2748862E+01  0.1116463E+06 -0.2796465E+01  0.3882441E-01 -0.1337347E+00  0.2966989E+05 -0.1552985E+01  0.1337926E-08  0.1472751E+01
  0.7800000E+00  0.9488132E+04 -0.1549747E+01  0.2319093E-01 -0.1734844E+00  0.1193483E+06 -0.2779399E+01  0.4107419E-01  0.3268395E+00  0.3115355E+05 -0.1548684E+01  0.2095511E-08  0.1170172E+01
  0.8100000E+00  0.9980178E+04 -0.1545051E+01  0.1548269E-01  0.2847344E+01  0.1270900E+06 -0.2762716E+01  0.2978012E-01  0.1495095E+01  0.3253168E+05 -0.1543609E+01  0.1387872E-08  0.3647348E+00
  0.8400000E+00  0.1044612E+05 -0.1539609E+01  0.6145159E-02  0.1776536E+01  0.1348458E+06 -0.2746449E+01  0.1017853E+00  0.1113872E+00  0.3378185E+05 -0.1537668E+01  0.2766427E-08  0.1766459E+01
  0.8700000E+00  0.1087838E+05 -0.1533352E+01  0.1064070E-01  0.1763212E+01  0.1425912E+06 -0.2730629E+01  0.1581335E-01  0.2988746E+01  0.3487860E+05 -0.1530764E+01  0.5873008E-09  0.1441094E+01
  0.9000000E+00  0.1126946E+05 -0.1526218E+01  0.1232754E-01  0.3030057E+01  0.1503014E+06 -0.2715272E+01  0.6145237E-01 -0.2285991E+01  0.3579336E+05 -0.1522792E+01  0.8940372E-09  0.1015303E+01
  0.9299999E+00  0.1161132E+05 -0.1518149E+01  0.1486581E-01 -0.2220484E+01  0.1579530E+06 -0.2700398E+01  0.3108726E-01 -0.5535403E+00  0.3649713E+05 -0.1513638E+01  0.2191221E-08 -0.2827654E+01
  0.9600000E+00  0.1189498E+05 -0.1509086E+01  0.1522980E-01 -0.3055749E+00  0.1655240E+06 -0.2686022E+01  0.9652425E-01  0.2544522E-01  0.3695957E+05 -0.1503177E+01  0.1975633E-09 -0.7853982E+00
  0.9899999E+00  0.1211015E+05 -0.1498976E+01  0.3449408E-01 -0.1078871E+01  0.1729929E+06 -0.2672154E+01  0.6132599E-01 -0.2307876E+01  0.3714606E+05 -0.1491264E+01  0.2992094E-08 -0.1297788E+01
  0.1020000E+01  0.1224708E+05 -0.1487770E+01  0.1734115E-01 -0.3117084E+01  0.1803384E+06 -0.2658800E+01  0.4099184E-01 -0.2837025E+01  0.3702191E+05 -0.1477725E+01  0.3884773E-08  0.2099421E+01
  0.1050000E+01  0.1229506E+05 -0.1475424E+01  0.1954714E-01  0.1842768E+00  0.1875416E+06 -0.2645967E+01  0.1135546E+00  0.3101666E+01  0.3655188E+05 -0.1462346E+01  0.1629974E-08 -0.5307735E+00
  0.1080000E+01  0.1224252E+05 -0.1461892E+01  0.1327036E-01  0.2613305E+01  0.1945838E+06 -0.2633660E+01  0.1369566E+00  0.2970587E+01  0.3569948E+05 -0.1444843E+01  0.1605810E-08  0.2273053E+01
  0.1110000E+01  0.1207791E+05 -0.1447124E+01  0.4137983E-01 -0.1423028E+01  0.2014460E+06 -0.2621876E+01  0.1278625E+00  0.2985727E+01  0.3442774E+05 -0.1424814E+01  0.1026677E-08  0.4214192E+00
  0.1140000E+01  0.1178998E+05 -0.1431069E+01  0.1647358E-01  0.1554726E+01  0.2081112E+06 -0.2610614E+01  0.9400502E-01  0.3038996E+01  0.3270105E+05 -0.1401669E+01  0.1320899E-08  0.4411795E+00
  0.1170000E+01  0.1136675E+05 -0.1413649E+01  0.2713718E-01  0.7760543E+00  0.2145634E+06 -0.2599873E+01  0.9564204E-01  0.1791354E+01  0.3048548E+05 -0.1374475E+01  0.2754594E-08 -0.1719686E+01
  0.1200000E+01  0.1079686E+05 -0.1394745E+01  0.2210707E-01 -0.2981481E+01  0.2207862E+06 -0.2589652E+01  0.1628582E+00 -0.3293506E+00  0.2775026E+05 -0.1341652E+01  0.3636353E-08  0.1288539E+01
  0.1230000E+01  0.1006963E+05 -0.1374164E+01  0.9114569E-02 -0.1025260E+00  0.2267644E+06 -0.2579944E+01  0.8719789E-01 -0.6924281E+00  0.2447087E+05 -0.1300310E+01  0.2062954E-08 -0.8960554E+00
  0.1260000E+01  0.9175756E+04 -0.1351571E+01  0.5232548E-01  0.1294723E+01  0.2324838E+06 -0.2570746E+01  0.8125260E-01  0.1423315E+01  0.2063410E+05 -0.1244564E+01  0.1757524E-08  0.4076315E+00
  0.1290000E+01  0.8106104E+04 -0.1326308E+01  0.5421441E-01  0.8693116E+00  0.2379292E+06 -0.2562047E+01  0.1208413E+00 -0.8176093E+00  0.1625062E+05 -0.1160451E+01  0.7879578E-08 -0.1436985E+01
  0.1320000E+01  0.6853130E+04 -0.1296983E+01  0.2226289E-01  0.2077902E+01  0.2430881E+06 -0.2553848E+01  0.6752192E-01  0.4374860E+00  0.1140851E+05 -0.1006268E+01  0.6454523E-08 -0.1582700E+01
  0.1350000E+01  0.5411245E+04 -0.1260238E+01  0.7049309E-01  0.2909807E+01  0.2479468E+06 -0.2546138E+01  0.9882000E-01 -0.2387246E+01  0.6601006E+04 -0.6049092E+00  0.1496125E-08  0.5224034E+00
  0.1380000E+01  0.3778048E+04 -0.1205720E+01  0.2346719E-01  0.1807692E+01  0.2524933E+06 -0.2538914E+01  0.5943355E-01  0.5382730E+00  0.5199227E+04  0.5564385E+00  0.3676861E-08  0.2441260E+01
  0.1410000E+01  0.1962488E+04 -0.1080405E+01  0.2647721E-01 -0.9991460E+00  0.2567151E+06 -0.2532168E+01  0.2208623E+00 -0.2679464E+01  0.1029831E+05  0.1273627E+01  0.1010696E-07 -0.1522054E+01
  0.1440000E+01  0.4356477E+03  0.5729990E+00  0.9137503E-02  0.2483828E+01  0.2606011E+06 -0.2525892E+01  0.6421312E-01  0.1132210E+00  0.1756670E+05  0.1502980E+01  0.4522540E-08 -0.2138236E+01
  0.1470000E+01  0.2389748E+04  0.1712874E+01  0.2418783E-01 -0.1022061E+01  0.2641404E+06 -0.2520083E+01  0.1533064E+00 -0.2781072E+01  0.2577751E+05  0.1613355E+01  0.1550243E-08  0.2258468E+01
  0.1500000E+01  0.4799738E+04  0.1823537E+01  0.2959434E-01 -0.4595079E+00  0.2673224E+06 -0.2514734E+01  0.1889887E+00 -0.1982465E+01  0.3471000E+05  0.1682721E+01  0.8139779E-08  0.1501017E+01
  0.1530000E+01  0.7412224E+04  0.1876203E+01  0.2877060E-01  0.3736679E+00  0.2701371E+06 -0.2509843E+01  0.1726269E+00  0.1548543E+01  0.4428386E+05  0.1733521E+01  0.4235862E-08 -0.1782624E+01
  0.1560000E+01  0.1021123E+05  0.1913467E+01  0.4476807E-01  0.2320421E+00  0.2725755E+06 -0.2505403E+01  0.2741311E+00 -0.2351647E+01  0.5444687E+05  0.1774345E+01  0.1059920E-08 -0.2325901E+01
  0.1590000E+01  0.1318661E+05  0.1944338E+01  0.3248641E-01 -0.2486695E+01  0.2746284E+06 -0.2501412E+01  0.1880911E+00  0.2848284E+01  0.6515377E+05  0.1809132E+01  0.8709680E-08  0.1274251E+01
  0.1620000E+01  0.1632809E+05  0.1971836E+01  0.2378199E-01 -0.1296978E+01  0.2762878E+06 -0.2497866E+01  0.1440259E+00 -0.2342647E+00  0.7635880E+05  0.1839917E+01  0.5596355E-08 -0.1740100E+01
  0.1650000E+01  0.1962417E+05  0.1997235E+01  0.4585829E-01 -0.1011812E+01  0.2775472E+06 -0.2494763E+01  0.2899816E+00 -0.1559886E+01  0.8801396E+05  0.1867840E+01  0.4312839E-08  0.6590900E+00
  0.1680000E+01  0.2306226E+05  0.2021157E+01  0.4409270E-01 -0.2100415E+01  0.2783983E+06 -0.2492106E+01  0.1835521E+00  0.2220844E+01  0.1000695E+06  0.1893585E+01  0.1089984E-07  0.1408597E+01
  0.1710000E+01  0.2662873E+05  0.2043928E+01  0.4041230E-01 -0.2601225E+00  0.2788362E+06 -0.2489892E+01  0.9378523E-01  0.1720417E+01  0.1124729E+06  0.1917581E+01  0.3478392E-08  0.1235472E+01
  0.1740000E+01  0.3030882E+05  0.2065731E+01  0.4949214E-01 -0.2920585E+01  0.2788549E+06 -0.2488122E+01  0.7406984E-01 -0.2367627E+01  0.1251697E+06  0.1940106E+01  0.2830899E-08 -0.2394151E+01
  0.1770000E+01  0.3408689E+05  0.2086681E+01  0.4689736E-01 -0.1544833E+01  0.2784504E+06 -0.2486800E+01  0.3124616E+00 -0.3199241E+00  0.1381032E+06  0.1961350E+01  0.4545197E-08  0.1881795E+01
  0.1800000E+01  0.3794693E+05  0.2106839E+01  0.2303050E-01  0.8981827E+00  0.2776191E+06 -0.2485928E+01  0.1179339E+00  0.1457386E+01  0.1512163E+06  0.1981444E+01  0.2177709E-07  0.1883798E+01
  0.1830000E+01  0.4187247E+05  0.2126243E+01  0.3650074E-01 -0.2452488E+01  0.2763594E+06 -0.2485512E+01  0.8476916E-01 -0.1696298E+01  0.1644502E+06  0.2000484E+01  0.1037221E-07  0.1457587E+01
  0.1860000E+01  0.4584621E+05  0.2144925E+01  0.1853588E-01  0.2719502E+01  0.2746681E+06 -0.2485560E+01  0.5447894E-01 -0.7811431E+00  0.1777457E+06  0.2018540E+01  0.2380819E-07  0.1673293E+01
  0.1890000E+01  0.4985072E+05  0.2162904E+01  0.5396570E-01  0.3884631E+00  0.2725455E+06 -0.2486080E+01  0.1633640E+00  0.2436888E+01  0.1910438E+06  0.2035666E+01  0.1311619E-07  0.1259655E+01
  0.1920000E+01  0.5386811E+05  0.2180196E+01  0.3650637E-01 -0.8384454E+00  0.2699921E+06 -0.2487082E+01  0.2533841E+00 -0.9481230E+00  0.2042850E+06  0.2051904E+01  0.1166651E-07 -0.2639379E+01
  0.1950000E+01  0.5788011E+05  0.2196819E+01  0.3796508E-01 -0.4587762E+00  0.2670099E+06 -0.2488579E+01  0.2391779E+00 -0.2245059E+01  0.2174089E+06  0.2067293E+01  0.4880052E-08 -0.2989827E+01
  0.1980000E+01  0.6186819E+05  0.2212792E+01  0.6872673E-01 -0.1710099E+01  0.2636020E+06 -0.2490588E+01  0.1112324E+00 -0.1284413E+01  0.2303567E+06  0.2081864E+01  0.1906120E-07  0.1360653E+01
  0.2010000E+01  0.6581415E+05  0.2228122E+01  0.4167254E-01 -0.2559564E+01  0.2597721E+06 -0.2493124E+01  0.2370297E+00  0.2725785E+01  0.2430687E+06  0.2095645E+01  0.8031597E-08 -0.1636395E+01
  0.2040000E+01  0.6969931E+05  0.2242826E+01  0.2838667E-01 -0.1135270E+01  0.2555267E+06 -0.2496213E+01  0.2139929E+00  0.1826494E+00  0.2554876E+06  0.2108660E+01  0.3731018E-08  0.2050457E+01
  0.2070000E+01  0.7350515E+05  0.2256914E+01  0.1981880E-01  0.9952638E+00  0.2508717E+06 -0.2499877E+01  0.1092744E+00  0.4692985E+00  0.2675550E+06  0.2120930E+01  0.1027013E-07 -0.2065930E+01
  0.2100000E+01  0.7721293E+05  0.2270402E+01  0.3846809E-01  0.2716978E+01  0.2458166E+06 -0.2504148E+01  0.1541115E+00  0.4989691E+00  0.2792145E+06  0.2132477E+01  0.5108043E-08 -0.1267019E+01
  0.2130000E+01  0.8080408E+05  0.2283306E+01  0.5905106E-01  0.3560691E+00  0.2403703E+06 -0.2509056E+01  0.2235789E+00  0.2920685E+01  0.2904105E+06  0.2143322E+01  0.2180853E-07  0.1811897E+01
  0.2160000E+01  0.8426013E+05  0.2295638E+01  0.3165872E-01 -0.2280677E+01  0.2345448E+06 -0.2514645E+01  0.1250800E+00 -0.2039476E+01  0.3010878E+06  0.2153480E+01  0.6832750E-08 -0.1193920E+01
  0.2190000E+01  0.8756262E+05  0.2307414E+01  0.1611158E-01  0.4859319E+00  0.2283521E+06 -0.2520958E+01  0.1971197E+00  0.2369507E+01  0.3111930E+06  0.2162969E+01  0.3062218E-08  0.4294234E-01
  0.2220000E+01  0.9069348E+05  0.2318648E+01  0.2696497E-01 -0.1981751E+01  0.2218076E+06 -0.2528053E+01  0.1813669E+00 -0.7978113E+00  0.3206747E+06  0.2171806E+01  0.2384610E-07 -0.1578925E+01
  0.2250000E+01  0.9363470E+05  0.2329352E+01  0.2144817E-01  0.1445942E+01  0.2149263E+06 -0.2535990E+01  0.1906106E+00 -0.5698531E+00  0.3294815E+06  0.2180000E+01  0.9421257E-08 -0.2768992E+01
  0.2280000E+01  0.9636905E+05  0.2339539E+01  0.2129162E-01  0.1186137E+00  0.2077264E+06 -0.2544845E+01  0.6683683E-01  0.9064611E+00  0.3375665E+06  0.2187568E+01  0.1325168E-07 -0.2130325E+01
  0.2310000E+01  0.9887923E+05  0.2349219E+01  0.2917584E-01  0.6568492E+00  0.2002269E+06 -0.2554709E+01  0.4499093E-01  0.3129728E+01  0.3448823E+06  0.2194517E+01  0.8381263E-08 -0.4726159E+00
  0.2340000E+01  0.1011487E+06  0.2358406E+01  0.1412652E-01 -0.1599472E+01  0.1924476E+06 -0.2565683E+01  0.1112782E+00  0.1613049E+01  0.3513855E+06  0.2200859E+01  0.6953029E-08  0.3473066E+00
  0.2370000E+01  0.1031616E+06  0.2367110E+01  0.4179119E-01 -0.2992918E+01  0.1844116E+06 -0.2577892E+01  0.7216164E-01  0.2901409E+01  0.3570349E+06  0.2206598E+01  0.1859686E-07  0.1234384E+01
  0.2400000E+01  0.1049027E+06  0.2375336E+01  0.2324839E-01 -0.1570206E+01  0.1761421E+06 -0.2591481E+01  0.2982176E-01  0.2102381E+01  0.3617918E+06  0.2211741E+01  0.2533363E-07 -0.1438063E+01
  0.2430000E+01  0.1063577E+06  0.2383096E+01  0.2039695E-01 -0.2527653E+01  0.1676641E+06 -0.2606628E+01  0.8832048E-01  0.4515510E+00  0.3656199E+06  0.2216289E+01  0.2447178E-07  0.9964201E+00
  0.2460000E+01  0.1075126E+06  0.2390394E+01  0.1512974E-01  0.8927135E+00  0.1590033E+06 -0.2623551E+01  0.1057613E+00  0.9834582E-02  0.3684880E+06  0.2220243E+01  0.1633902E-07 -0.3038436E+01
  0.2490000E+01  0.1083554E+06  0.2397234E+01  0.1311946E-01 -0.3561358E+00  0.1501868E+06 -0.2642518E+01  0.5049951E-01 -0.3077873E+01  0.3703662E+06  0.2223602E+01  0.1750145E-07  0.1479574E+01
  0.2520000E+01  0.1088744E+06  0.2403619E+01  0.2967866E-01  0.2812125E+01  0.1412412E+06 -0.2663862E+01  0.1061468E+00  0.2516195E+00  0.3712311E+06  0.2226358E+01  0.1100834E-07  0.2579462E+01
  0.2550000E+01  0.1090595E+06  0.2409547E+01  0.1811003E-01  0.1416073E+01  0.1321931E+06 -0.2688008E+01  0.1373613E+00  0.2459087E+01  0.3710614E+06  0.2228504E+01  0.9341631E-08 -0.2367430E+01
  0.2580000E+01  0.1089019E+06  0.2415016E+01  0.5932620E-02  0.2241829E+01  0.1230656E+06 -0.2715500E+01  0.3153451E-01 -0.2818444E+01  0.3698404E+06  0.2230027E+01  0.2863439E-07  0.2653321E+00
  0.2610000E+01  0.1083942E+06  0.2420022E+01  0.2762414E-01 -0.7707035E+00  0.1138757E+06 -0.2747061E+01  0.7702966E-01 -0.2873986E+01  0.3675570E+06  0.2230910E+01  0.1877082E-07 -0.2264498E+01
  0.2640000E+01  0.1075308E+06  0.2424555E+01  0.8345114E-02 -0.2667217E+00  0.1046269E+06 -0.2783695E+01  0.8312932E-01  0.4350694E+00  0.3642042E+06  0.2231129E+01  0.2631779E-07 -0.3086094E+01
  0.2670000E+01  0.1063078E+06  0.2428600E+01  0.4952440E-01 -0.1641596E+01  0.9528895E+05 -0.2826864E+01  0.1011333E+00  0.2331288E+01  0.3597808E+06  0.2230659E+01  0.1804415E-07 -0.1906389E+00
  0.2700000E+01  0.1047224E+06  0.2432139E+01  0.9310007E-02 -0.5073235E+00  0.8573613E+05 -0.2878987E+01  0.3100762E-01  0.5986406E+00  0.3542902E+06  0.2229463E+01  0.1312580E-07  0.1101794E+01
  0.2730000E+01  0.1027743E+06  0.2435150E+01  0.2249238E-01  0.3669214E+00  0.7553527E+05 -0.2945102E+01  0.1651360E-01 -0.2106044E+01  0.3477407E+06  0.2227498E+01  0.1176153E-07  0.2026750E-01
  0.2760000E+01  0.1004645E+06  0.2437599E+01  0.2182978E-01  0.3112349E+01  0.6274924E+05 -0.3041935E+01  0.8883333E-01  0.2757847E+01  0.3401463E+06  0.2224710E+01  0.1026838E-07 -0.2288510E+00
  0.2790000E+01  0.9779632E+05  0.2439448E+01  0.2835045E-02  0.2308085E+00  0.2108927E+05  0.2826531E+01  0.1120851E-01 -0.4211167E+00  0.3315256E+06  0.2221035E+01  0.1431702E-07  0.1733148E+01
  0.2820000E+01  0.9477681E+05  0.2440634E+01  0.2414505E-01 -0.2215807E+01  0.8023186E+05 -0.2981055E+01  0.5697007E-01 -0.5351787E+00  0.3219094E+06  0.2216390E+01  0.7257412E-08  0.1218644E+01
  0.2850000E+01  0.9141009E+05  0.2441097E+01  0.1392823E-01  0.1475809E-01  0.6143814E+05  0.3111125E+01  0.1536090E-01 -0.1564777E+01  0.3113199E+06  0.2210672E+01  0.1225945E-07 -0.2495385E+01
  0.2880000E+01  0.8770696E+05  0.2440742E+01  0.1526827E-01 -0.7295760E+00  0.5262522E+05  0.2961137E+01  0.2143679E-01  0.3056391E+01  0.2997957E+06  0.2203756E+01  0.5059479E-08 -0.9471766E+00
  0.2910000E+01  0.8367725E+05  0.2439450E+01  0.6825012E-02 -0.4817083E+00  0.4654791E+05  0.2799332E+01  0.2934499E-01  0.5826505E+00  0.2873736E+06  0.2195480E+01  0.1024259E-07  0.1349885E+01
  0.2940000E+01  0.7933326E+05  0.2437058E+01  0.1072094E-01  0.3576269E+00  0.4228693E+05  0.2618898E+01  0.7178896E-02  0.2160482E+01  0.2740947E+06  0.2185636E+01  0.2180301E-07  0.1815208E+00
  0.2970000E+01  0.7468672E+05  0.2433341E+01  0.1494042E-03 -0.5428834E+00  0.3965293E+05  0.2423394E+01  0.9404338E-02  0.3819706E+00  0.2599986E+06  0.2173949E+01  0.7634843E-09 -0.6017407E+00
  0.3000000E+01  0.6974891E+05  0.2427975E+01  0.7730478E-03  0.1180454E+01  0.3854240E+05  0.2223061E+01  0.2598701E-01  0.2085751E-01  0.2451185E+06  0.2160044E+01  0.9009023E-08  0.8720253E+00
  0.3030000E+01  0.6452626E+05  0.2420484E+01  0.6532609E-02 -0.5721298E+00  0.3877078E+05  0.2030813E+01  0.3884252E-01 -0.3078069E+01  0.2294697E+06  0.2143394E+01  0.8030884E-08  0.2330957E+01
  0.3060000E+01  0.5901400E+05  0.2410099E+01  0.2513927E-03 -0.2652148E+01  0.4005298E+05  0.1856848E+01  0.8407006E-02 -0.7678168E+00  0.2130218E+06  0.2123192E+01  0.4049189E-08 -0.1427344E+01
  0.3090000E+01  0.5317564E+05  0.2395469E+01  0.3823414E-02  0.4635727E-01  0.4206392E+05  0.1705832E+01  0.1611964E-01  0.6955869E-01  0.1956297E+06  0.2098072E+01  0.5411752E-08  0.2991470E+01
  0.3120000E+01  0.4688036E+05  0.2373685E+01  0.8467300E-02  0.2988529E+01  0.4450155E+05  0.1577640E+01  0.2501825E-01  0.3025635E+01  0.1767995E+06  0.2065216E+01  0.9127604E-08 -0.1985485E+01
  0.3150000E+01  0.3960539E+05  0.2336262E+01  0.2347696E-02  0.1344051E+01  0.4711861E+05  0.1469543E+01  0.1313650E-01  0.2543565E+01  0.1545887E+06  0.2016489E+01  0.9117721E-08 -0.1666463E+01
  0.3180000E+01  0.2737803E+05  0.2228250E+01  0.5509923E-02 -0.2235201E+01  0.4972696E+05  0.1378028E+01  0.1273546E-01 -0.2792685E+01  0.1143084E+06  0.1899402E+01  0.7828016E-08 -0.4266275E+00
  0.3210000E+01  0.4997584E+05  0.2589471E+01  0.6770329E-03  0.1910779E+01  0.5218849E+05  0.1299718E+01  0.4592699E-02 -0.1323125E+01  0.2016814E+06  0.2242357E+01  0.1089373E-07  0.2204006E+01
  0.3240000E+01  0.3126891E+05  0.2358404E+01  0.5804965E-02  0.1486395E+01  0.5440303E+05  0.1231752E+01  0.2216932E-01 -0.1056252E+01  0.1385877E+06  0.2006056E+01  0.9708867E-08  0.2946102E+01
  0.3270000E+01  0.2348682E+05  0.2259191E+01  0.1754938E-02  0.1329912E+01  0.5629869E+05  0.1171786E+01  0.1411534E-01 -0.3542891E+00  0.1151736E+06  0.1910240E+01  0.1528531E-07  0.1658074E+01
  0.3300000E+01  0.1717035E+05  0.2128037E+01  0.6249434E-02 -0.1341421E+01  0.5782453E+05  0.1117952E+01  0.4427736E-01 -0.1591512E+01  0.9697940E+05  0.1810234E+01  0.5897050E-08 -0.2217555E+01
  0.3330000E+01  0.1177849E+05  0.1892264E+01  0.6754738E-02 -0.1166344E+01  0.5894511E+05  0.1068730E+01  0.6465210E-02  0.5385162E+00  0.8130593E+05  0.1685437E+01  0.1254114E-07  0.2504274E+01
  0.3360000E+01  0.8013908E+04  0.1400484E+01  0.1593029E-01 -0.1537752E+01  0.5963710E+05  0.1022858E+01  0.2572550E-01 -0.1245781E+01  0.6793633E+05  0.1520099E+01  0.6540350E-08  0.1890183E+01
  0.3390000E+01  0.7809382E+04  0.6510065E+00  0.1464834E-01 -0.1780030E+01  0.5988537E+05  0.9793221E+00  0.1542537E-01 -0.1902006E+01  0.5742756E+05  0.1298677E+01  0.2643147E-07  0.1762335E+01
  0.3420000E+01  0.1097536E+05  0.1539309E+00  0.5589426E-02  0.1709831E+01  0.5967969E+05  0.9372189E+00  0.2809959E-01  0.1464901E+01  0.5074811E+05  0.1016140E+01  0.1426709E-07 -0.1115729E+01
  0.3450000E+01  0.1529617E+05 -0.8124574E-01  0.1351160E-01 -0.1752260E+01  0.5901034E+05  0.8956791E+00  0.1532729E-01  0.7945756E+00  0.4872401E+05  0.6986369E+00  0.2421525E-07 -0.2709475E+01
  0.3480000E+01  0.1980545E+05 -0.2048045E+00  0.3869414E-02  0.1194336E+01  0.5786457E+05  0.8537676E+00  0.4982943E-01  0.7556674E+00  0.5119165E+05  0.4001164E+00  0.2913540E-07  0.1185933E+01
  0.3510000E+01  0.2419482E+05 -0.2790551E+00  0.8979674E-02  0.9065366E+00  0.5621610E+05  0.8102834E+00  0.6958712E-02  0.2714846E+01  0.5691536E+05  0.1585676E+00  0.2846513E-07  0.1031896E+01
  0.3540000E+01  0.2833605E+05 -0.3283520E+00  0.8846039E-02 -0.2172698E+01  0.5399279E+05  0.7633750E+00  0.3082978E-01 -0.2420486E+01  0.6443732E+05 -0.2292707E-01  0.5084340E-07 -0.1666180E+01
  0.3570000E+01  0.3215896E+05 -0.3635775E+00  0.6112371E-02 -0.1691191E+01  0.5098007E+05  0.7091009E+00  0.2554662E-01  0.2962588E+01  0.7266130E+05 -0.1576506E+00  0.1079571E-07 -0.1873762E+01
  0.3600000E+01  0.3561561E+05 -0.3902123E+00  0.3154898E-02 -0.5889269E+00  0.4631226E+05  0.6345292E+00  0.8038680E-02  0.1425368E+01  0.8088519E+05 -0.2595349E+00  0.2332483E-07  0.1938373E+01
  0.3630000E+01  0.3867054E+05 -0.4113244E+00  0.1974051E-02 -0.1118178E+01  0.3156563E+05  0.4214671E+00  0.7836854E-02 -0.1406252E+00  0.8867655E+05 -0.3389469E+00  0.1498402E-07  0.2136309E+01
  0.3660000E+01  0.4129471E+05 -0.4287617E+00  0.1637995E-01 -0.1604125E+01  0.6125349E+05  0.8308288E+00  0.3736051E-01 -0.1228909E+01  0.9575936E+05 -0.4029129E+00  0.7186748E-08 -0.2090229E+00
  0.3690000E+01  0.4346586E+05 -0.4437096E+00  0.6737497E-02  0.2327475E+01  0.4872074E+05  0.6364909E+00  0.1491884E-01  0.2428782E+01  0.1019546E+06 -0.4561270E+00  0.2822499E-07  0.1359969E+01
  0.3720000E+01  0.4516551E+05 -0.4569965E+00  0.2449633E-02 -0.3027477E+01  0.4340291E+05  0.5454403E+00  0.5422168E-02 -0.3373681E-03  0.1071404E+06 -0.5017936E+00  0.2147066E-07 -0.5970933E+00
  0.3750000E+01  0.4638030E+05 -0.4692348E+00  0.8939124E-02 -0.1883786E+01  0.3917685E+05  0.4626508E+00  0.2468971E-01 -0.5785541E+00  0.1112347E+06 -0.5421775E+00  0.1006052E-07 -0.1029447E+01
  0.3780000E+01  0.4710110E+05 -0.4809229E+00  0.7308541E-02 -0.7567947E+00  0.3533486E+05  0.3745045E+00  0.3430824E-01  0.3020300E+01  0.1141836E+06 -0.5789533E+00  0.5785864E-07 -0.1305295E+01
  0.3810000E+01  0.4732382E+05 -0.4925230E+00  0.2985026E-02  0.1836848E+01  0.3174288E+05  0.2748058E+00  0.1899181E-01  0.2517058E+01  0.1159579E+06 -0.6134471E+00  0.7682779E-08 -0.2603648E+01
  0.3840000E+01  0.4705365E+05 -0.5045712E+00  0.3335766E-02  0.1979121E+01  0.2841313E+05  0.1585378E+00  0.1481329E-01  0.1290532E+01  0.1165671E+06 -0.6468594E+00  0.7040497E-07  0.1626383E+01
  0.3870000E+01  0.4636406E+05 -0.5185989E+00  0.2899263E-02  0.1300344E+01  0.2542019E+05  0.2102750E-01  0.1376658E-01 -0.1186216E+01  0.1162985E+06 -0.6813251E+00  0.9816794E-08  0.1631068E+01
  0.3900000E+01  0.4464990E+05 -0.5309514E+00  0.3267847E-02  0.1621110E+01  0.2287534E+05 -0.1415927E+00  0.1140720E-01 -0.1786879E+00  0.1127816E+06 -0.7146544E+00  0.1924804E-07 -0.2002792E+01
  0.3930000E+01  0.4289735E+05 -0.5486318E+00  0.3900107E-02  0.3418846E+00  0.2090639E+05 -0.3302683E+00  0.7623946E-02 -0.6077356E+00  0.1098150E+06 -0.7517105E+00  0.5470527E-08  0.6780062E+00
  0.3960000E+01  0.4036357E+05 -0.5731015E+00  0.2469925E-02  0.2859788E+01  0.1962801E+05 -0.5403205E+00  0.1063263E-01  0.3059230E+01  0.1046189E+06 -0.7970619E+00  0.2004584E-07  0.1332093E+01
  0.3990000E+01  0.3658095E+05 -0.6180242E+00  0.2293684E-02  0.7830979E+00  0.1909393E+05 -0.7599707E+00  0.1312946E-01 -0.2040968E+00  0.9567520E+05 -0.8666416E+00  0.3046455E-07 -0.1622040E+01
  0.4020000E+01  0.2247599E+05 -0.8728259E+00  0.1622231E-02  0.1759574E+01  0.1926084E+05 -0.9735814E+00  0.2901598E-02 -0.2952266E+01  0.5388024E+05 -0.1214770E+01  0.2336728E-07 -0.8420750E+00
  0.4050000E+01  0.3871415E+05 -0.4512786E+00  0.3545230E-03  0.3057059E+01  0.1999337E+05 -0.1168252E+01  0.6921442E-02  0.3020395E+01  0.1110743E+06 -0.7115508E+00  0.2689809E-08 -0.1301902E+01
  0.4080000E+01  0.3243972E+05 -0.5493002E+00  0.9320661E-03 -0.2041445E+01  0.2111042E+05 -0.1337899E+01  0.4078048E-02  0.9105017E+00  0.9461943E+05 -0.8395491E+00  0.3349835E-07  0.1598272E+01
  0.4110001E+01  0.2797938E+05 -0.5980831E+00  0.5256934E-03  0.6973039E+00  0.2243863E+05 -0.1482755E+01  0.2417024E-02 -0.1649325E+01  0.8458337E+05 -0.9125720E+00  0.4604208E-07 -0.1501895E+01
  0.4140000E+01  0.2375119E+05 -0.6455833E+00  0.1330308E-02 -0.7812009E+00  0.2385173E+05 -0.1606894E+01  0.5204160E-02 -0.2403647E+01  0.7555004E+05 -0.9826376E+00  0.1650678E-07  0.1361232E+01
  0.4170000E+01  0.1955601E+05 -0.7047294E+00  0.1166920E-02 -0.1209632E+01  0.2542165E+05 -0.1721499E+01  0.3474115E-02 -0.2375938E+01  0.6680006E+05 -0.1061070E+01  0.2652621E-07  0.9021289E+00
  0.4200000E+01  0.1539861E+05 -0.7899185E+00  0.1320769E-02 -0.1433134E+01  0.2532664E+05 -0.1786942E+01  0.8124702E-02  0.2002842E+01  0.5827084E+05 -0.1155465E+01  0.2683166E-07 -0.9581554E-01
  0.4230000E+01  0.1138242E+05 -0.9304879E+00  0.6316627E-03  0.1974430E+01  0.2671112E+05 -0.1874533E+01  0.1018453E-02  0.2798860E+01  0.5011813E+05 -0.1274600E+01  0.4229388E-08  0.1943195E+01
  0.4260000E+01  0.7789964E+04 -0.1201970E+01  0.3322531E-02 -0.1412709E+01  0.2740233E+05 -0.1950219E+01  0.4022410E-02 -0.1631845E+01  0.4265041E+05 -0.1430171E+01  0.6497253E-08  0.2704361E+00
  0.4290000E+01  0.5488517E+04 -0.1772408E+01  0.3390374E-02  0.1494094E+01  0.2771908E+05 -0.2020645E+01  0.1061943E-01 -0.1355682E+01  0.3634306E+05 -0.1636229E+01  0.1320638E-07  0.2679105E+00
  0.4320000E+01  0.5996910E+04 -0.2521439E+01  0.4987015E-02  0.1219978E+01  0.2764026E+05 -0.2089297E+01  0.5136897E-02  0.2352650E+01  0.3184582E+05 -0.1902018E+01  0.7596505E-08 -0.2188641E+01
  0.4350000E+01  0.8643721E+04 -0.2953959E+01  0.1471588E-02 -0.2717983E+01  0.2706808E+05 -0.2160838E+01  0.3664617E-02  0.1670759E+01  0.2980990E+05 -0.2214137E+01  0.1588161E-07 -0.2772559E+01
  0.4380000E+01  0.1189439E+05  0.3123112E+01  0.5709421E-03 -0.1482889E+01  0.2561583E+05 -0.2248006E+01  0.2493402E-02  0.7216371E+00  0.3044146E+05 -0.2527332E+01  0.2011228E-07 -0.1823846E+01
  0.4410000E+01  0.1517404E+05  0.3009816E+01  0.2125905E-02  0.2566334E+01  0.1937731E+05 -0.2469395E+01  0.1604901E-02 -0.3107181E+01  0.3323782E+05 -0.2795981E+01  0.1161145E-07  0.2509698E+01
  0.4440000E+01  0.1830303E+05  0.2937264E+01  0.2027399E-02 -0.1940198E+01  0.3221535E+05 -0.2124435E+01  0.3067846E-02  0.1133096E+01  0.3739475E+05 -0.3007521E+01  0.1403759E-07  0.8276694E+00
  0.4470000E+01  0.2002540E+05  0.2880929E+01  0.4160149E-02  0.1251182E+01  0.2719384E+05 -0.2299655E+01  0.5530141E-02 -0.2961622E+01  0.3872032E+05  0.3122924E+01  0.5260712E-07  0.1722224E+01
  0.4500000E+01  0.2336551E+05  0.2856226E+01  0.2929927E-02 -0.3260640E+00  0.2487360E+05 -0.2393410E+01  0.5822517E-02  0.1912793E+00  0.4600691E+05  0.3006510E+01  0.5002966E-08  0.2216915E+01
  0.4530000E+01  0.2546590E+05  0.2825653E+01  0.3711736E-02  0.2077563E+01  0.2285648E+05 -0.2480584E+01  0.1296909E-01 -0.2210510E+01  0.5030250E+05  0.2908144E+01  0.1335730E-07 -0.2928748E+00