VARIABLES="w (rad/s)"  
"abs(F   1   1)" "angle(F   1   1)"
"abs(F   1   2)" "angle(F   1   2)"
"abs(F   1   3)" "angle(F   1   3)"
"abs(F   1   4)" "angle(F   1   4)"
"abs(F   1   5)" "angle(F   1   5)"
"abs(F   1   6)" "angle(F   1   6)"
Zone t="Excitation force - beta =   0.000 deg",I=   308,F=POINT
  0.3000000E-01  0.8666731E+02 -0.1570773E+01  0.9795626E-01 -0.3141591E+01  0.6234238E+06 -0.2692325E-06  0.4293271E+00 -0.1425530E-06  0.3069004E+03 -0.1570785E+01  0.5009085E-08 -0.3136652E+01
  0.6000000E-01  0.3465482E+03 -0.1570794E+01  0.2337327E+00 -0.2789193E-05  0.6226759E+06 -0.4302512E-05  0.2053044E+00  0.3141579E+01  0.1227023E+04 -0.1570806E+01  0.5122133E-08  0.3136104E+01
  0.9000000E-01  0.7792737E+03 -0.1570797E+01  0.8066073E-01  0.3141588E+01  0.6214216E+06 -0.2173845E-04  0.1332914E+00 -0.3141466E+01  0.2758638E+04 -0.1570794E+01  0.6165553E-08 -0.9676955E-02
  0.1200000E+00  0.1384242E+04 -0.1570796E+01  0.1071162E+00  0.3141426E+01  0.6196549E+06 -0.6850804E-04  0.2707388E-01 -0.1325997E-03  0.4898852E+04 -0.1570797E+01  0.1409337E-07 -0.3137292E+01
  0.1500000E+00  0.2160587E+04 -0.1570797E+01  0.8814000E-01 -0.2481414E-03  0.6173640E+06 -0.1666393E-03  0.2207809E+00 -0.7823397E-05  0.7643606E+04 -0.1570795E+01  0.1234924E-07 -0.2279599E-01
  0.1800000E+00  0.3107201E+04 -0.1570797E+01  0.2675664E-01 -0.3141016E+01  0.6145472E+06 -0.3439641E-03  0.2061464E+00  0.8960504E-03  0.1098770E+05 -0.1570796E+01  0.9621133E-08  0.3060191E+01
  0.2100000E+00  0.4222748E+04 -0.1570795E+01  0.6362920E-01  0.6549919E-03  0.6111959E+06 -0.6337610E-03  0.7769323E+00  0.3141192E+01  0.1492474E+05 -0.1570794E+01  0.5783247E-08 -0.1532437E-01
  0.2400000E+00  0.5505607E+04 -0.1570791E+01  0.8684986E-01 -0.3140185E+01  0.6073079E+06 -0.1074284E-02  0.7343724E+00  0.5220076E-03  0.1944726E+05 -0.1570791E+01  0.2739998E-08 -0.2730982E+01
  0.2700000E+00  0.6953918E+04 -0.1570787E+01  0.1025956E+00  0.6561810E-04  0.6028846E+06 -0.1708251E-02  0.5484441E-01 -0.3139479E+01  0.2454646E+05 -0.1570786E+01  0.8015308E-08  0.1094808E+00
  0.3000000E+00  0.8565538E+04 -0.1570778E+01  0.1141042E+00 -0.1002560E-02  0.5979322E+06 -0.2582206E-02  0.3750822E+00 -0.3139323E+01  0.3021245E+05 -0.1570778E+01  0.7393914E-08 -0.3136770E+01
  0.3300000E+00  0.1033802E+05 -0.1570765E+01  0.3165809E+00 -0.1798774E-02  0.5924561E+06 -0.3745902E-02  0.7696280E+00  0.3140896E+01  0.3643421E+05 -0.1570765E+01  0.7697571E-08 -0.1041824E+00
  0.3600000E+00  0.1226881E+05 -0.1570744E+01  0.5700462E-01  0.1683246E-02  0.5864722E+06 -0.5251517E-02  0.1448031E+01  0.2481211E-03  0.4319958E+05 -0.1570744E+01  0.4251726E-08  0.1232512E+00
  0.3900000E+00  0.1435492E+05 -0.1570714E+01  0.9568049E-01 -0.1048516E-01  0.5799924E+06 -0.7153000E-02  0.4615480E+00  0.3138007E+01  0.5049494E+05 -0.1570714E+01  0.6081970E-08  0.9710345E+00
  0.4200000E+00  0.1659301E+05 -0.1570670E+01  0.9392231E-01 -0.3124767E+01  0.5730408E+06 -0.9505235E-02  0.2806006E+00  0.3140533E+01  0.5830563E+05 -0.1570670E+01  0.4102356E-08  0.2762345E+01
  0.4500000E+00  0.1897958E+05 -0.1570608E+01  0.2722670E+00  0.1438293E-02  0.5656386E+06 -0.1236332E-01  0.3667268E+00  0.3129802E+01  0.6661575E+05 -0.1570608E+01  0.9246927E-08 -0.2983805E+01
  0.4800000E+00  0.2151082E+05 -0.1570525E+01  0.2655180E-01 -0.3107285E+01  0.5578145E+06 -0.1578191E-01  0.9580822E-01 -0.3005998E+01  0.7540814E+05 -0.1570525E+01  0.5056504E-08 -0.1462376E+01
  0.5100000E+00  0.2418221E+05 -0.1570414E+01  0.1123603E+00 -0.3577237E-01  0.5496001E+06 -0.1981431E-01  0.2581808E+00 -0.2968172E-01  0.8466377E+05 -0.1570414E+01  0.1315954E-07  0.8191133E+00
  0.5400000E+00  0.2698960E+05 -0.1570270E+01  0.2678730E-01  0.2628895E-01  0.5410250E+06 -0.2451230E-01  0.1020848E+01 -0.3135822E+01  0.9436321E+05 -0.1570270E+01  0.8875464E-08 -0.2011580E+01
  0.5700000E+00  0.2992742E+05 -0.1570085E+01  0.1738911E+00 -0.3135063E+01  0.5321253E+06 -0.2992508E-01  0.4734927E+00  0.3313188E-02  0.1044843E+06 -0.1570085E+01  0.1282284E-07 -0.1487357E+00
  0.6000000E+00  0.3299069E+05 -0.1569854E+01  0.9857642E-02 -0.3014259E+01  0.5229382E+06 -0.3609905E-01  0.4011840E+00 -0.3137910E+01  0.1150043E+06 -0.1569854E+01  0.3376904E-08  0.2740377E+00
  0.6299999E+00  0.3617299E+05 -0.1569568E+01  0.1605961E+00 -0.4095227E-02  0.5134987E+06 -0.4307757E-01  0.1633497E+00 -0.3074527E+01  0.1258976E+06 -0.1569568E+01  0.7377846E-08  0.1090335E+01
  0.6600000E+00  0.3946809E+05 -0.1569221E+01  0.1085133E+00 -0.3085992E+01  0.5038453E+06 -0.5090040E-01  0.1868488E+00 -0.5831257E-01  0.1371377E+06 -0.1569221E+01  0.6394862E-08  0.6786387E-01
  0.6899999E+00  0.4286887E+05 -0.1568804E+01  0.1894659E+00 -0.2632335E-01  0.4940142E+06 -0.5960384E-01  0.1651900E+00  0.3082364E+01  0.1486964E+06 -0.1568804E+01  0.3776419E-08 -0.8541701E+00
  0.7200000E+00  0.4636720E+05 -0.1568311E+01  0.1599545E+00  0.3125162E+01  0.4840430E+06 -0.6922004E-01  0.3677128E+00 -0.3116167E+01  0.1605413E+06 -0.1568311E+01  0.8414770E-08 -0.1562772E+01
  0.7500000E+00  0.4995528E+05 -0.1567735E+01  0.1374307E+00  0.3101986E+01  0.4739646E+06 -0.7977786E-01  0.4685187E+00 -0.3130331E+01  0.1726397E+06 -0.1567735E+01  0.1111449E-07 -0.8201225E+00
  0.7800000E+00  0.5362306E+05 -0.1567072E+01  0.4843071E-01 -0.8288924E-01  0.4638160E+06 -0.9130146E-01  0.6285839E+00  0.2102386E-01  0.1849546E+06 -0.1567072E+01  0.1479947E-07 -0.8168578E+00
  0.8100000E+00  0.5736043E+05 -0.1566317E+01  0.1432471E+00  0.3110840E+01  0.4536264E+06 -0.1038128E+00  0.3487768E+00  0.8496853E-01  0.1974478E+06 -0.1566317E+01  0.1216824E-07  0.1550345E+01
  0.8400000E+00  0.6115704E+05 -0.1565470E+01  0.1791278E-01  0.3445307E+00  0.4434291E+06 -0.1173286E+00  0.6786339E+00  0.1681247E-01  0.2100777E+06 -0.1565470E+01  0.2446220E-08  0.5968459E+00
  0.8700000E+00  0.6499999E+05 -0.1564531E+01  0.1248378E+00  0.3057125E+01  0.4332465E+06 -0.1318640E+00  0.8537393E-01  0.2811177E-01  0.2227993E+06 -0.1564531E+01  0.7775396E-08 -0.2042462E+01
  0.9000000E+00  0.6887630E+05 -0.1563505E+01  0.8307479E-01  0.1712297E-01  0.4231092E+06 -0.1474298E+00  0.4140471E+00 -0.1122317E+00  0.2355630E+06 -0.1563505E+01  0.7050389E-08  0.1437481E+01
  0.9299999E+00  0.7277238E+05 -0.1562400E+01  0.4178775E-01 -0.2894580E+00  0.4130375E+06 -0.1640348E+00  0.2242626E+00 -0.7183233E-01  0.2483198E+06 -0.1562400E+01  0.3401942E-08 -0.2993477E+01
  0.9600000E+00  0.7667271E+05 -0.1561228E+01  0.1114612E+00 -0.4100227E-01  0.4030536E+06 -0.1816846E+00  0.6025541E+00  0.4343467E-02  0.2610144E+06 -0.1561228E+01  0.1519206E-07  0.1515596E+01
  0.9899999E+00  0.8056064E+05 -0.1560009E+01  0.9018512E-01 -0.2797548E+01  0.3931766E+06 -0.2003825E+00  0.6172030E+00 -0.7330974E-01  0.2735888E+06 -0.1560009E+01  0.1478663E-07 -0.1460904E+01
  0.1020000E+01  0.8441948E+05 -0.1558765E+01  0.1235833E+00 -0.3137776E+01  0.3834216E+06 -0.2201308E+00  0.3290956E+00 -0.3708991E-01  0.2859835E+06 -0.1558765E+01  0.2989719E-07 -0.1538978E+01
  0.1050000E+01  0.8823113E+05 -0.1557526E+01  0.3284599E-01  0.3034410E+01  0.3738038E+06 -0.2409291E+00  0.1383189E+00  0.3264699E-01  0.2981372E+06 -0.1557526E+01  0.8914870E-08  0.1438849E+01
  0.1080000E+01  0.9197652E+05 -0.1556328E+01  0.7316823E-01  0.3049165E+01  0.3643362E+06 -0.2627741E+00  0.6350987E+00  0.3646874E-01  0.3099849E+06 -0.1556328E+01  0.2346912E-07  0.1324819E+01
  0.1110000E+01  0.9563634E+05 -0.1555217E+01  0.1207390E+00 -0.3459339E+00  0.3550283E+06 -0.2856638E+00  0.4940295E+00  0.3101271E+01  0.3214625E+06 -0.1555217E+01  0.2145737E-07  0.1290173E+01
  0.1140000E+01  0.9919144E+05 -0.1554241E+01  0.7752376E-01  0.2142717E+00  0.3458906E+06 -0.3095930E+00  0.3147037E+00  0.3111870E+01  0.3325033E+06 -0.1554241E+01  0.1814934E-07 -0.1030008E+01
  0.1170000E+01  0.1026214E+06 -0.1553460E+01  0.5077003E-01  0.2758026E+01  0.3369272E+06 -0.3345594E+00  0.1093156E+00  0.1023793E+01  0.3430446E+06 -0.1553460E+01  0.2820147E-07  0.1535742E+01
  0.1200000E+01  0.1059073E+06 -0.1552940E+01  0.3161660E-01 -0.1127100E+00  0.3281458E+06 -0.3605533E+00  0.5200699E+00 -0.1017739E+00  0.3530235E+06 -0.1552940E+01  0.3871787E-07  0.1511529E+01
  0.1230000E+01  0.1090298E+06 -0.1552752E+01  0.2805760E-01 -0.3109495E+01  0.3195502E+06 -0.3875700E+00  0.1601873E+00 -0.2786318E+01  0.3623805E+06 -0.1552752E+01  0.2666153E-07  0.1412641E+01
  0.1260000E+01  0.1119724E+06 -0.1552974E+01  0.5052904E-01  0.1589167E+01  0.3111422E+06 -0.4156042E+00  0.3445989E+00  0.2905155E+01  0.3710614E+06 -0.1552974E+01  0.7849129E-08 -0.1302704E+01
  0.1290000E+01  0.1147182E+06 -0.1553691E+01  0.6024602E-01  0.2383624E+01  0.3029271E+06 -0.4446455E+00  0.1349877E+00 -0.2429698E+01  0.3790165E+06 -0.1553691E+01  0.1976350E-07 -0.1617760E+01
  0.1320000E+01  0.1172527E+06 -0.1554991E+01  0.5482539E-01  0.2778826E+01  0.2949030E+06 -0.4746885E+00  0.7485930E+00  0.3852812E-01  0.3862035E+06 -0.1554991E+01  0.2711707E-07 -0.1635925E+01
  0.1350000E+01  0.1195636E+06 -0.1556965E+01  0.3436606E+00  0.3094468E+01  0.2870718E+06 -0.5057254E+00  0.3358031E+00 -0.2029443E+00  0.3925863E+06 -0.1556965E+01  0.1315484E-07 -0.1485405E+01
  0.1380000E+01  0.1216403E+06 -0.1559707E+01  0.6877400E-01  0.2805436E+01  0.2794323E+06 -0.5377479E+00  0.1815061E+00  0.2972630E+01  0.3981385E+06 -0.1559707E+01  0.1268079E-07  0.1673338E+01
  0.1410000E+01  0.1234760E+06 -0.1563311E+01  0.1129232E+00 -0.2943310E+01  0.2719831E+06 -0.5707508E+00  0.2709970E+00 -0.2772177E+01  0.4028443E+06 -0.1563310E+01  0.3678412E-07 -0.1611222E+01
  0.1440000E+01  0.1250655E+06 -0.1567869E+01  0.5195560E-01  0.1073671E+00  0.2647240E+06 -0.6047251E+00  0.3830492E-01  0.2963998E+01  0.4066938E+06 -0.1567869E+01  0.9805929E-08  0.2197201E+01
  0.1470000E+01  0.1264067E+06 -0.1573473E+01  0.2894845E-01 -0.7918087E+00  0.2576512E+06 -0.6396670E+00  0.4782863E+00 -0.3028088E+01  0.4096871E+06 -0.1573473E+01  0.2275578E-07  0.1680765E+01
  0.1500000E+01  0.1274998E+06 -0.1580210E+01  0.7799762E-01 -0.2973502E+01  0.2507630E+06 -0.6755677E+00  0.1800626E+00 -0.1858589E+01  0.4118338E+06 -0.1580210E+01  0.7306699E-08  0.3538757E+00
  0.1530000E+01  0.1283478E+06 -0.1588162E+01  0.2069657E+00  0.3091437E+01  0.2440565E+06 -0.7124196E+00  0.2840726E+00  0.2486192E+01  0.4131543E+06 -0.1588162E+01  0.2080757E-07 -0.1811741E+01
  0.1560000E+01  0.1289569E+06 -0.1597405E+01  0.4199452E-01  0.2491423E+00  0.2375298E+06 -0.7502139E+00  0.2528448E+00 -0.2261868E+01  0.4136741E+06 -0.1597405E+01  0.1652685E-07 -0.1639459E+01
  0.1590000E+01  0.1293347E+06 -0.1608010E+01  0.2951142E-01 -0.7410548E+00  0.2311766E+06 -0.7889533E+00  0.3579214E+00  0.2989603E+01  0.4134242E+06 -0.1608011E+01  0.4367757E-07  0.1512492E+01
  0.1620000E+01  0.1294898E+06 -0.1620041E+01  0.2908949E-01 -0.8994324E+00  0.2249959E+06 -0.8286253E+00  0.3144217E+00 -0.1065831E+00  0.4124431E+06 -0.1620041E+01  0.1497657E-07  0.1548253E+01
  0.1650000E+01  0.1294345E+06 -0.1633550E+01  0.5021807E-01 -0.2251583E+01  0.2189837E+06 -0.8692271E+00  0.3884635E+00 -0.2298191E+01  0.4107779E+06 -0.1633550E+01  0.1221797E-07 -0.1095377E+01
  0.1680000E+01  0.1291801E+06 -0.1648586E+01  0.9386392E-01 -0.2723003E+01  0.2131346E+06 -0.9107536E+00  0.6877821E+00  0.2926891E+01  0.4084724E+06 -0.1648587E+01  0.2443785E-07 -0.1324801E+01
  0.1710000E+01  0.1287407E+06 -0.1665188E+01  0.2123771E+00 -0.4866409E-01  0.2074465E+06 -0.9531967E+00  0.9295183E-01  0.1618969E+01  0.4055749E+06 -0.1665190E+01  0.6716970E-07 -0.1635257E+01
  0.1740000E+01  0.1281291E+06 -0.1683388E+01  0.3669738E-01 -0.2839165E+01  0.2019139E+06 -0.9965613E+00  0.2440648E+00 -0.2930108E+01  0.4021384E+06 -0.1683390E+01  0.3207095E-07  0.1581995E+01
  0.1770000E+01  0.1273607E+06 -0.1703211E+01  0.1046654E+00 -0.4676586E+00  0.1965346E+06 -0.1040830E+01  0.3186993E+00 -0.3146067E+00  0.3982132E+06 -0.1703212E+01  0.4330413E-07 -0.1542423E+01
  0.1800000E+01  0.1264496E+06 -0.1724672E+01  0.4973897E-01  0.3689378E+00  0.1913038E+06 -0.1086008E+01  0.2722943E+00  0.4445881E+00  0.3938486E+06 -0.1724675E+01  0.1207824E-07 -0.1959157E+01
  0.1830000E+01  0.1254095E+06 -0.1747784E+01  0.1066560E+00 -0.2923739E+01  0.1862176E+06 -0.1132095E+01  0.2413412E+00 -0.3572704E+00  0.3890964E+06 -0.1747788E+01  0.1664105E-07  0.1494189E+01
  0.1860000E+01  0.1242537E+06 -0.1772552E+01  0.1658205E+00  0.4706215E-01  0.1812719E+06 -0.1179078E+01  0.1056460E+00 -0.2773385E+01  0.3840035E+06 -0.1772556E+01  0.1689114E-07  0.1665943E+01
  0.1890000E+01  0.1229956E+06 -0.1798976E+01  0.2048346E-01  0.1478136E+01  0.1764630E+06 -0.1226960E+01  0.2074485E+00  0.2601929E+01  0.3786140E+06 -0.1798980E+01  0.5315832E-07 -0.1440275E+01
  0.1920000E+01  0.1216482E+06 -0.1827050E+01  0.9748133E-01 -0.2830280E+00  0.1717874E+06 -0.1275734E+01  0.2083995E+00 -0.1414195E+01  0.3729727E+06 -0.1827055E+01  0.1036928E-07  0.2975115E+01
  0.1950000E+01  0.1202230E+06 -0.1856766E+01  0.1767190E-01 -0.1846980E+01  0.1672408E+06 -0.1325406E+01  0.4168921E+00 -0.4649129E+00  0.3671182E+06 -0.1856773E+01  0.2818282E-07  0.1712489E+01
  0.1980000E+01  0.1187312E+06 -0.1888113E+01  0.1391191E+00 -0.2631445E+01  0.1628195E+06 -0.1375970E+01  0.2319255E+00 -0.4813789E+00  0.3610893E+06 -0.1888121E+01  0.2820818E-07  0.1310315E+01
  0.2010000E+01  0.1171835E+06 -0.1921074E+01  0.2347471E-01 -0.1792415E+01  0.1585200E+06 -0.1427424E+01  0.2055981E+00  0.4843090E+00  0.3549196E+06 -0.1921084E+01  0.4398742E-07 -0.1564901E+01
  0.2040000E+01  0.1155891E+06 -0.1955633E+01  0.4908298E-01 -0.5528316E+00  0.1543387E+06 -0.1479767E+01  0.1787622E+00  0.2194409E+00  0.3486419E+06 -0.1955645E+01  0.3364128E-08  0.2734849E+01
  0.2070000E+01  0.1139563E+06 -0.1991771E+01  0.1766073E-01  0.1904233E+01  0.1502717E+06 -0.1533000E+01  0.2840748E+00  0.1764240E+00  0.3422821E+06 -0.1991785E+01  0.1011627E-07 -0.1953093E+01
  0.2100000E+01  0.1122936E+06 -0.2029466E+01  0.2028088E-01  0.9118696E+00  0.1463158E+06 -0.1587121E+01  0.2012284E+00  0.3756869E+00  0.3358681E+06 -0.2029481E+01  0.3648666E-07 -0.1471324E+01
  0.2130000E+01  0.1106081E+06 -0.2068696E+01  0.2301301E-01  0.2042000E+01  0.1424675E+06 -0.1642126E+01  0.1097311E+00  0.4549600E+00  0.3294221E+06 -0.2068716E+01  0.1714210E-07  0.1999646E+01
  0.2160000E+01  0.1089059E+06 -0.2109442E+01  0.2397576E-01 -0.1684490E+01  0.1387229E+06 -0.1698020E+01  0.2136386E+00 -0.2591506E+01  0.3229649E+06 -0.2109463E+01  0.1597563E-08  0.9838544E+00
  0.2190000E+01  0.1071930E+06 -0.2151677E+01  0.1096109E-01  0.7766380E+00  0.1350789E+06 -0.1754802E+01  0.1866653E+00  0.2318576E+01  0.3165132E+06 -0.2151704E+01  0.3623959E-08 -0.5349869E+00
  0.2220000E+01  0.1054746E+06 -0.2195381E+01  0.2481797E-01 -0.1633641E+01  0.1315318E+06 -0.1812477E+01  0.1784667E+00 -0.8080383E+00  0.3100857E+06 -0.2195411E+01  0.1918895E-07 -0.1565731E+01
  0.2250000E+01  0.1037554E+06 -0.2240528E+01  0.3692240E-01  0.6143039E+00  0.1280783E+06 -0.1871046E+01  0.3463520E+00 -0.3011133E+00  0.3036942E+06 -0.2240561E+01  0.2052464E-07  0.1996921E+01
  0.2280000E+01  0.1020389E+06 -0.2287099E+01  0.5460519E-01  0.3090338E+01  0.1247146E+06 -0.1930501E+01  0.3379405E+00  0.1562345E+00  0.2973521E+06 -0.2287136E+01  0.5878309E-07 -0.1724728E+01
  0.2310000E+01  0.1003287E+06 -0.2335070E+01  0.3953133E-01  0.4654063E+00  0.1214373E+06 -0.1990869E+01  0.1999431E+00  0.3136817E+01  0.2910688E+06 -0.2335109E+01  0.3985806E-08  0.1113965E+01
  0.2340000E+01  0.9862835E+05 -0.2384416E+01  0.2791687E-01 -0.5212597E+00  0.1182419E+06 -0.2052137E+01  0.1255371E+00  0.2060871E+01  0.2848543E+06 -0.2384461E+01  0.2913451E-07  0.1223580E+01
  0.2370000E+01  0.9694004E+05 -0.2435120E+01  0.2477930E-01 -0.2902983E+01  0.1151253E+06 -0.2114326E+01  0.1679330E+00  0.9742929E-01  0.2787146E+06 -0.2435171E+01  0.1088134E-07  0.8350358E+00
  0.2400000E+01  0.9526616E+05 -0.2487161E+01  0.2878630E-01 -0.2221974E+01  0.1120829E+06 -0.2177434E+01  0.1381490E+00  0.1932997E+00  0.2726579E+06 -0.2487216E+01  0.3991917E-07 -0.1536378E+01
  0.2430000E+01  0.9360886E+05 -0.2540518E+01  0.1799044E-01 -0.2411895E+01  0.1091101E+06 -0.2241475E+01  0.1443785E+00  0.2872808E+01  0.2666873E+06 -0.2540580E+01  0.4491949E-07  0.1256708E+01
  0.2460000E+01  0.9196947E+05 -0.2595173E+01  0.2170884E-01  0.5897299E+00  0.1062010E+06 -0.2306470E+01  0.6830728E-01  0.6365807E-02  0.2608086E+06 -0.2595240E+01  0.1869654E-07  0.2824691E+01
  0.2490000E+01  0.9034960E+05 -0.2651109E+01  0.1393655E-01 -0.3148812E+00  0.1033488E+06 -0.2372447E+01  0.1431076E+00 -0.3123441E+01  0.2550246E+06 -0.2651178E+01  0.4964274E-07  0.1503454E+01
  0.2520000E+01  0.8875027E+05 -0.2708304E+01  0.3202054E-01  0.2838102E+01  0.1005441E+06 -0.2439438E+01  0.6922851E-01  0.3816367E+00  0.2493378E+06 -0.2708376E+01  0.2694253E-07  0.1779759E+01
  0.2550000E+01  0.8717217E+05 -0.2766750E+01  0.2972214E-01  0.2477767E+01  0.9777542E+05 -0.2507512E+01  0.1650462E+00  0.2589138E+01  0.2437497E+06 -0.2766823E+01  0.2067790E-07 -0.1899713E+01
  0.2580000E+01  0.8561610E+05 -0.2826425E+01  0.8533790E-02  0.2563047E+01  0.9502462E+05 -0.2576750E+01  0.5785714E-01 -0.2976962E+01  0.2382602E+06 -0.2826504E+01  0.3326723E-07 -0.2281222E+00
  0.2610000E+01  0.8408263E+05 -0.2887316E+01  0.3385760E-01 -0.6082300E+00  0.9226469E+05 -0.2647301E+01  0.2190442E-01 -0.1148352E+01  0.2328714E+06 -0.2887396E+01  0.2907540E-07 -0.2298330E+01
  0.2640000E+01  0.8257202E+05 -0.2949414E+01  0.5176246E-02 -0.3931607E+00  0.8945173E+05 -0.2719430E+01  0.1037399E+00  0.3513392E+00  0.2275814E+06 -0.2949498E+01  0.2618147E-07 -0.2926610E+01
  0.2670000E+01  0.8108448E+05 -0.3012712E+01  0.4980261E-01 -0.1715795E+01  0.8650260E+05 -0.2793610E+01  0.1117602E+00  0.2428924E+01  0.2223906E+06 -0.3012795E+01  0.2486150E-07 -0.6790118E+00
  0.2700000E+01  0.7961976E+05 -0.3077193E+01  0.9950018E-02 -0.4752361E+00  0.8323409E+05 -0.2870898E+01  0.1876415E-01  0.1235553E+01  0.2172970E+06 -0.3077277E+01  0.1392767E-08 -0.1462698E-01
  0.2730000E+01  0.7817795E+05  0.3140332E+01  0.2132989E-01  0.3877547E+00  0.7914676E+05 -0.2954177E+01  0.5130920E-01 -0.2861872E+01  0.2122984E+06  0.3140248E+01  0.2859533E-07 -0.1217399E+01
  0.2760000E+01  0.7675830E+05  0.3073502E+01  0.2938966E-01  0.3134006E+01  0.7222559E+05 -0.3055046E+01  0.1077221E+00  0.2823097E+01  0.2073920E+06  0.3073414E+01  0.2883129E-07 -0.1051502E+01
  0.2790000E+01  0.7536023E+05  0.3005503E+01  0.6777559E-03  0.7964771E+00  0.3556915E+05  0.2956815E+01  0.3811592E-01 -0.1066073E+00  0.2025729E+06  0.3005422E+01  0.3710301E-07  0.1617497E+01
  0.2820000E+01  0.7398405E+05  0.2936315E+01  0.2215455E-01 -0.2089924E+01  0.9988407E+05 -0.3012838E+01  0.3721369E-01 -0.9133033E+00  0.1978409E+06  0.2936237E+01  0.8679613E-08 -0.3703443E+00
  0.2850000E+01  0.7262647E+05  0.2865963E+01  0.8264245E-02  0.3711243E-01  0.8577570E+05  0.3119771E+01  0.1944227E-01 -0.8957662E+00  0.1931836E+06  0.2865887E+01  0.1803850E-07  0.2715186E+01
  0.2880000E+01  0.7128720E+05  0.2794412E+01  0.2637751E-01 -0.4030295E+00  0.8070010E+05  0.3024285E+01  0.1781780E-01  0.3066167E+01  0.1885960E+06  0.2794342E+01  0.1167113E-07  0.7348756E+00
  0.2910000E+01  0.6996330E+05  0.2721645E+01  0.1622071E-01 -0.1974503E+00  0.7738407E+05  0.2938315E+01  0.4929056E-01  0.3453125E+00  0.1840655E+06  0.2721586E+01  0.4727315E-08 -0.1272910E+00
  0.2940000E+01  0.6865202E+05  0.2647618E+01  0.7386075E-02  0.5560774E+00  0.7473398E+05  0.2855221E+01  0.1619802E-01  0.2756330E+01  0.1795771E+06  0.2647568E+01  0.2459561E-07 -0.1004649E+00
  0.2970000E+01  0.6734795E+05  0.2572262E+01  0.5786052E-03 -0.3074901E+01  0.7242063E+05  0.2773008E+01  0.1642451E-01  0.2039233E+00  0.1751071E+06  0.2572220E+01  0.1722051E-07  0.1792961E+01
  0.3000000E+01  0.6604371E+05  0.2495449E+01  0.5309462E-02  0.1309788E+00  0.7031025E+05  0.2690841E+01  0.2568905E-01  0.3889463E-01  0.1706183E+06  0.2495425E+01  0.2767958E-07  0.1336146E+01
  0.3030000E+01  0.6472590E+05  0.2416982E+01  0.1546195E-01 -0.2340888E+00  0.6834135E+05  0.2608341E+01  0.2606113E-01 -0.3053662E+01  0.1660500E+06  0.2416976E+01  0.1280639E-07 -0.1566553E+01
  0.3060000E+01  0.6337048E+05  0.2336463E+01  0.2679770E-02 -0.3091418E+01  0.6647976E+05  0.2525314E+01  0.4385892E-01 -0.1383393E+00  0.1612885E+06  0.2336486E+01  0.1256245E-07 -0.1785845E+01
  0.3090000E+01  0.6192612E+05  0.2253073E+01  0.3482911E-01  0.5894901E-02  0.6470466E+05  0.2441652E+01  0.8491433E-02  0.3018991E+01  0.1560986E+06  0.2253134E+01  0.1299673E-07  0.1944090E+01
  0.3120000E+01  0.6026486E+05  0.2164697E+01  0.2057783E-01  0.3074798E+01  0.6300211E+05  0.2357288E+01  0.2483166E-01  0.3031683E+01  0.1498919E+06  0.2164824E+01  0.3015360E-07 -0.1791052E+01
  0.3150000E+01  0.5794289E+05  0.2064165E+01  0.4638689E-02  0.5025296E+00  0.6136182E+05  0.2272182E+01  0.7398328E-02  0.1300927E+01  0.1406395E+06  0.2064442E+01  0.6945151E-08 -0.1872569E+01
  0.3180000E+01  0.5167713E+05  0.1900493E+01  0.5373390E-02 -0.2198281E+01  0.5977597E+05  0.2186304E+01  0.1012885E-01 -0.2680408E+01  0.1136875E+06  0.1901264E+01  0.2979607E-07 -0.1237067E+01
  0.3210000E+01  0.7178166E+05  0.2205292E+01  0.1744904E-01  0.3108177E+01  0.5823790E+05  0.2099618E+01  0.8547548E-02 -0.5551125E+00  0.2123945E+06  0.2202876E+01  0.1144697E-07  0.1999390E+01
  0.3240000E+01  0.6175375E+05  0.1937813E+01  0.1289664E-01  0.2683389E+01  0.5674245E+05  0.2012110E+01  0.2059149E-01 -0.1232678E+01  0.1631799E+06  0.1937030E+01  0.1832243E-07  0.2155988E+01
  0.3270000E+01  0.5919338E+05  0.1825619E+01  0.2934204E-02  0.6143657E+00  0.5528390E+05  0.1923739E+01  0.1438189E-01 -0.2818413E+01  0.1524529E+06  0.1825071E+01  0.1563507E-07  0.1283512E+01
  0.3300000E+01  0.5756645E+05  0.1729197E+01  0.1113913E-01 -0.5893258E+00  0.5385762E+05  0.1834475E+01  0.4692652E-01 -0.1230385E+01  0.1462301E+06  0.1728733E+01  0.1679651E-07 -0.2073586E+01
  0.3330000E+01  0.5624954E+05  0.1637005E+01  0.1491003E-01 -0.2710824E+01  0.5245786E+05  0.1744249E+01  0.3542604E-01  0.9711444E-01  0.1414753E+06  0.1636583E+01  0.1188147E-07 -0.3044464E+01
  0.3360000E+01  0.5508024E+05  0.1546134E+01  0.1865446E-01 -0.2118042E+01  0.5107855E+05  0.1652959E+01  0.4549338E-01 -0.2576256E+01  0.1374067E+06  0.1545739E+01  0.1169957E-07  0.1922696E+01
  0.3390000E+01  0.5399752E+05  0.1455495E+01  0.1730319E-01 -0.9909844E+00  0.4971465E+05  0.1560528E+01  0.1521646E-01 -0.1268623E+01  0.1337318E+06  0.1455121E+01  0.3460276E-07  0.1665890E+01
  0.3420000E+01  0.5297289E+05  0.1364599E+01  0.1514355E-01  0.2767724E+01  0.4835768E+05  0.1466862E+01  0.3390509E-01  0.9653631E+00  0.1303153E+06  0.1364239E+01  0.1569312E-07 -0.1305344E+01
  0.3450000E+01  0.5199136E+05  0.1273187E+01  0.1385926E-01 -0.1886048E+01  0.4699262E+05  0.1371822E+01  0.1261104E-01  0.2073062E+01  0.1270859E+06  0.1272834E+01  0.2310662E-07 -0.2854980E+01
  0.3480000E+01  0.5104438E+05  0.1181113E+01  0.9590611E-02  0.2766931E+01  0.4559409E+05  0.1275160E+01  0.5727267E-01  0.6409347E+00  0.1240020E+06  0.1180760E+01  0.3768811E-07  0.1032544E+01
  0.3510000E+01  0.5012603E+05  0.1088282E+01  0.9987938E-02  0.7911805E+00  0.4411564E+05  0.1176326E+01  0.3107889E-02  0.1125421E+01  0.1210374E+06  0.1087918E+01  0.3421041E-07  0.1159516E+01
  0.3540000E+01  0.4923254E+05  0.9946378E+00  0.8590701E-02 -0.2111792E+01  0.4245691E+05  0.1074207E+01  0.4021225E-01 -0.2614521E+01  0.1181747E+06  0.9942539E+00  0.4366109E-07 -0.1668527E+01
  0.3570000E+01  0.4836098E+05  0.9001293E+00  0.6633010E-02 -0.1941054E+01  0.4036022E+05  0.9657694E+00  0.5102973E-02  0.1058376E+01  0.1154010E+06  0.8997141E+00  0.1993974E-07 -0.2074466E+01
  0.3600000E+01  0.4750951E+05  0.8047380E+00  0.2027870E-02 -0.2190017E+01  0.3687265E+05  0.8398727E+00  0.9475843E-02  0.2151787E+01  0.1127064E+06  0.8042825E+00  0.8668660E-08  0.2060121E+01
  0.3630000E+01  0.4667582E+05  0.7084219E+00  0.5088233E-02 -0.2783398E+01  0.2309473E+05  0.5933635E+00  0.8872673E-02 -0.1160960E+00  0.1100828E+06  0.7079244E+00  0.1449084E-07  0.2046181E+01
  0.3660000E+01  0.4585806E+05  0.6111675E+00  0.1663014E-01 -0.1419766E+01  0.5696123E+05  0.9175891E+00  0.3554722E-01 -0.1732092E+01  0.1075214E+06  0.6106238E+00  0.3570261E-07 -0.1271619E+01
  0.3690000E+01  0.4505509E+05  0.5129344E+00  0.7197075E-02  0.2388046E+01  0.4572630E+05  0.6858107E+00  0.2437687E-01  0.4117296E+00  0.1050157E+06  0.5123459E+00  0.2696457E-07  0.1200895E+01
  0.3720000E+01  0.4426470E+05  0.4136885E+00  0.9514408E-03 -0.2805745E+01  0.4254264E+05  0.5577580E+00  0.1006896E-01 -0.1469569E-01  0.1025577E+06  0.4130593E+00  0.1829860E-07 -0.9414576E+00
  0.3750000E+01  0.4348501E+05  0.3133708E+00  0.9656135E-02 -0.2089725E+01  0.4065070E+05  0.4446476E+00  0.2443392E-01 -0.5891705E+00  0.1001383E+06  0.3126990E+00  0.1133080E-07 -0.1000693E+01
  0.3780000E+01  0.4271373E+05  0.2118997E+00  0.7628893E-02 -0.7212942E+00  0.3921091E+05  0.3359335E+00  0.3383002E-01  0.3020683E+01  0.9774713E+05  0.2111713E+00  0.4991780E-07 -0.1242119E+01
  0.3810000E+01  0.4194856E+05  0.1091223E+00  0.3104392E-02  0.1883680E+01  0.3799143E+05  0.2287176E+00  0.2680308E-01  0.2720726E+01  0.9537382E+05  0.1082920E+00  0.5216708E-08  0.2265138E+01
  0.3840000E+01  0.4119038E+05  0.4703454E-02  0.3092151E-02  0.1874737E+01  0.3690201E+05  0.1218587E+00  0.2047963E-01  0.2364327E+01  0.9301888E+05  0.3586730E-02  0.9515512E-07  0.1607018E+01
  0.3870000E+01  0.4048400E+05 -0.1033791E+00  0.3210665E-02  0.2172901E+01  0.3589956E+05  0.1488885E-01  0.1443407E-01 -0.1080072E+01  0.9084516E+05 -0.1061758E+00  0.2103332E-07  0.1565701E+01
  0.3900000E+01  0.3933126E+05 -0.2056159E+00  0.3955254E-02  0.9844985E+00  0.3496073E+05 -0.9246868E-01  0.1169996E-01 -0.1839243E+00  0.8699690E+05 -0.2043837E+00  0.1732349E-07  0.2265190E+01
  0.3930000E+01  0.3853675E+05 -0.3182432E+00  0.3120389E-02  0.2720119E+01  0.3407027E+05 -0.2003341E+00  0.7006296E-02 -0.6543860E+00  0.8445673E+05 -0.3180002E+00  0.8938336E-08  0.4511353E+00
  0.3960000E+01  0.3742682E+05 -0.4366992E+00  0.2299560E-02  0.2825425E+01  0.3321855E+05 -0.3088387E+00  0.1175350E-01  0.3069388E+01  0.8068309E+05 -0.4367673E+00  0.6083656E-08  0.1089026E+01
  0.3990000E+01  0.3553768E+05 -0.5754431E+00  0.1642319E-02  0.1503926E+01  0.3239839E+05 -0.4180751E+00  0.1210605E-01 -0.2324610E+00  0.7384605E+05 -0.5757933E+00  0.6576564E-07 -0.1666360E+01
  0.4020000E+01  0.2423663E+05 -0.9323126E+00  0.6245418E-02  0.2734149E+00  0.3160538E+05 -0.5281421E+00  0.8858011E-02 -0.3076481E+01  0.3191473E+05 -0.9416605E+00  0.1065037E-06 -0.1421957E+01
  0.4050000E+01  0.4178724E+05 -0.5850018E+00  0.5952156E-02  0.1207912E-01  0.3083640E+05 -0.6391869E+00  0.6462040E-02  0.2992339E+01  0.1009318E+06 -0.5854646E+00  0.2587968E-07 -0.1554430E+01
  0.4080000E+01  0.3857698E+05 -0.7710161E+00  0.2852277E-02 -0.2725444E+00  0.3008980E+05 -0.7513681E+00  0.1025776E-01  0.3243843E+00  0.8813445E+05 -0.7713997E+00  0.7666200E-08 -0.1942296E+01
  0.4110001E+01  0.3726226E+05 -0.9013686E+00  0.4904006E-02  0.6645478E-01  0.2936644E+05 -0.8650561E+00  0.2627988E-02 -0.1915686E+01  0.8342588E+05 -0.9017982E+00  0.2562630E-07 -0.1451360E+01
  0.4140000E+01  0.3634479E+05 -0.1021626E+01  0.8974047E-02 -0.3036007E+01  0.2867395E+05 -0.9814134E+00  0.1081620E-01 -0.2800260E+01  0.8036363E+05 -0.1022074E+01  0.1606022E-07 -0.1089909E+01
  0.4170000E+01  0.3558078E+05 -0.1138788E+01  0.1067193E-02 -0.1700285E+01  0.2806444E+05 -0.1109699E+01  0.1101187E-01 -0.2920144E+01  0.7792740E+05 -0.1139262E+01  0.3440514E-07  0.9407161E+00
  0.4200000E+01  0.3489519E+05 -0.1254951E+01  0.7711984E-02 -0.1652610E+00  0.2674598E+05 -0.1180770E+01  0.7370085E-02  0.1574831E+01  0.7580734E+05 -0.1255442E+01  0.6520927E-07  0.1166345E+01
  0.4230000E+01  0.3425732E+05 -0.1370961E+01  0.2682730E-02  0.2068071E+00  0.2635929E+05 -0.1313030E+01  0.3716254E-02  0.1198766E+00  0.7387598E+05 -0.1371462E+01  0.6270106E-07 -0.1611131E+01
  0.4260000E+01  0.3365219E+05 -0.1487244E+01  0.3797805E-02 -0.2103009E+01  0.2569234E+05 -0.1434318E+01  0.7169521E-02 -0.2537645E+01  0.7207209E+05 -0.1487756E+01  0.1435715E-06  0.1546645E+01
  0.4290000E+01  0.3307127E+05 -0.1604035E+01  0.8961827E-02  0.2757462E+01  0.2496424E+05 -0.1555661E+01  0.1048151E-01 -0.1453789E+01  0.7036059E+05 -0.1604576E+01  0.9495833E-07 -0.1452343E+01
  0.4320000E+01  0.3250950E+05 -0.1721482E+01  0.1018699E-01  0.4687512E+00  0.2414871E+05 -0.1679062E+01  0.1526235E-01  0.2899783E+01  0.6872098E+05 -0.1722072E+01  0.3078184E-07 -0.1769905E+01
  0.4350000E+01  0.3196336E+05 -0.1839705E+01  0.5715797E-03 -0.1396698E+01  0.2313500E+05 -0.1807236E+01  0.3908028E-02  0.1894090E+01  0.6713993E+05 -0.1840391E+01  0.8566747E-07 -0.1784044E+01
  0.4380000E+01  0.3143042E+05 -0.1958832E+01  0.1583271E-02 -0.2751473E+01  0.2148319E+05 -0.1949244E+01  0.5057158E-02  0.3262104E+00  0.6560868E+05 -0.1959694E+01  0.4427799E-07  0.1708614E+01
  0.4410000E+01  0.3090797E+05 -0.2079088E+01  0.1753813E-02  0.7638357E+00  0.1483541E+05 -0.2191704E+01  0.2750080E-02 -0.3135473E+01  0.6411796E+05 -0.2080287E+01  0.6101776E-07  0.1748172E+01
  0.4440000E+01  0.3038910E+05 -0.2201557E+01  0.3160449E-02 -0.2520500E+01  0.2992328E+05 -0.1984165E+01  0.3012778E-02  0.1891129E+01  0.6265080E+05 -0.2203738E+01  0.4973016E-07  0.1454459E+01
  0.4470000E+01  0.2926263E+05 -0.2293235E+01  0.3862489E-02  0.1628206E+01  0.2511639E+05 -0.2201465E+01  0.4224211E-02 -0.2903181E+01  0.5925441E+05 -0.2282791E+01  0.2974909E-07  0.1848951E+01
  0.4500000E+01  0.2939747E+05 -0.2438228E+01  0.1087369E-02 -0.1183745E+01  0.2365343E+05 -0.2344393E+01  0.8262205E-02  0.1393041E+00  0.5982420E+05 -0.2437237E+01  0.1006026E-06 -0.1604216E+01
  0.4530000E+01  0.2890823E+05 -0.2563159E+01  0.4113244E-02  0.2213336E+01  0.2273795E+05 -0.2476524E+01  0.1460283E-01 -0.2358711E+01  0.5845517E+05 -0.2562919E+01  0.4946601E-07  0.1297093E+01