VARIABLES="w (rad/s)"
"abs(F   1   1)" "angle(F   1   1)"
"abs(F   1   2)" "angle(F   1   2)"
"abs(F   1   3)" "angle(F   1   3)"
"abs(F   1   4)" "angle(F   1   4)"
"abs(F   1   5)" "angle(F   1   5)"
"abs(F   1   6)" "angle(F   1   6)"
Zone t="FKforce - beta =   0.000",I=   308,F=POINT
  0.3000000E-01  0.6858802E+02 -0.1570767E+01  0.9800577E-01 -0.3141592E+01  0.6236034E+06 -0.1702537E-11  0.4291897E+00  0.1521681E-06  0.2429573E+03 -0.1570782E+01  0.5005941E-08 -0.3135858E+01
  0.6000000E-01  0.2743017E+03 -0.1570793E+01  0.2337279E+00 -0.6853588E-06  0.6233971E+06 -0.6172991E-11  0.2048502E+00 -0.3141590E+01  0.9715709E+03 -0.1570809E+01  0.5122274E-08 -0.3141371E+01
  0.9000000E-01  0.6169866E+03 -0.1570797E+01  0.8046103E-01  0.3141581E+01  0.6230529E+06 -0.2012562E-10  0.1335864E+00  0.3141590E+01  0.2185075E+04 -0.1570794E+01  0.6170117E-08 -0.5822458E-02
  0.1200000E+00  0.1096386E+04 -0.1570796E+01  0.1063647E+00 -0.3141578E+01  0.6225722E+06 -0.9382453E-11  0.2140522E-01 -0.2637524E-03  0.3882181E+04 -0.1570798E+01  0.1408690E-07 -0.3132037E+01
  0.1500000E+00  0.1712139E+04 -0.1570798E+01  0.8743906E-01 -0.2223951E-04  0.6219504E+06  0.9727256E-11  0.2259576E+00  0.4284063E-04  0.6061074E+04 -0.1570795E+01  0.1234093E-07 -0.1208668E-01
  0.1800000E+00  0.2463774E+04 -0.1570798E+01  0.2645159E-01 -0.3141580E+01  0.6211914E+06  0.1981412E-10  0.2118545E+00 -0.2753685E-04  0.8719413E+04 -0.1570797E+01  0.9577898E-08  0.3060029E+01
  0.2100000E+00  0.3350712E+04 -0.1570797E+01  0.6185007E-01  0.3902967E-04  0.6202905E+06 -0.1244385E-10  0.7743618E+00 -0.3141565E+01  0.1185435E+05 -0.1570796E+01  0.5823899E-08 -0.3280073E-01
  0.2400000E+00  0.4372250E+04 -0.1570796E+01  0.8453131E-01  0.3141575E+01  0.6192461E+06 -0.1032801E-09  0.7418766E+00  0.3432658E-04  0.1546248E+05 -0.1570796E+01  0.2967485E-08 -0.2612106E+01
  0.2700000E+00  0.5527595E+04 -0.1570797E+01  0.1046124E+00  0.9970919E-05  0.6180575E+06  0.7040023E-11  0.6155539E-01  0.3141263E+01  0.1953980E+05 -0.1570796E+01  0.7937613E-08  0.7339732E-01
  0.3000000E+00  0.6815795E+04 -0.1570796E+01  0.1091146E+00  0.9832627E-05  0.6167244E+06 -0.1070850E-09  0.3810544E+00  0.3141545E+01  0.2408178E+05 -0.1570796E+01  0.7458933E-08  0.3094265E+01
  0.3300000E+00  0.8235746E+04 -0.1570796E+01  0.3152852E+00  0.1606924E-05  0.6152419E+06 -0.3197041E-11  0.7537379E+00  0.3141559E+01  0.2908333E+05 -0.1570796E+01  0.7640189E-08 -0.1385301E+00
  0.3600000E+00  0.9786324E+04 -0.1570796E+01  0.5639982E-01 -0.1151937E-03  0.6136118E+06 -0.1789271E-09  0.1466755E+01 -0.6964181E-05  0.3453875E+05 -0.1570796E+01  0.4424506E-08  0.1809013E-01
  0.3900000E+00  0.1146612E+05 -0.1570796E+01  0.1037955E+00  0.5742506E-06  0.6118271E+06 -0.1656153E-09  0.4690945E+00  0.3141555E+01  0.4044164E+05 -0.1570796E+01  0.5822585E-08  0.9023004E+00
  0.4200000E+00  0.1327362E+05 -0.1570796E+01  0.9103584E-01 -0.3141544E+01  0.6098892E+06  0.1270494E-10  0.2700189E+00  0.3141526E+01  0.4678528E+05 -0.1570796E+01  0.4086893E-08  0.2717765E+01
  0.4500000E+00  0.1520723E+05 -0.1570796E+01  0.2828946E+00 -0.5414876E-04  0.6077932E+06  0.1898583E-09  0.3439988E+00 -0.3141591E+01  0.5356176E+05 -0.1570796E+01  0.8744151E-08 -0.2969331E+01
  0.4800000E+00  0.1726508E+05 -0.1570796E+01  0.1986456E-01 -0.3141158E+01  0.6055372E+06  0.1728478E-09  0.9321575E-01 -0.3140609E+01  0.6076320E+05 -0.1570796E+01  0.5907719E-08 -0.1472108E+01
  0.5100000E+00  0.1944514E+05 -0.1570796E+01  0.1054044E+00 -0.4489954E-03  0.6031198E+06  0.4111212E-10  0.2794510E+00  0.1266421E-03  0.6838027E+05 -0.1570796E+01  0.1334100E-07  0.8340085E+00
  0.5400000E+00  0.2174532E+05 -0.1570796E+01  0.1825906E-01  0.1178444E-02  0.6005350E+06 -0.2977577E-10  0.1010899E+01 -0.3141572E+01  0.7640373E+05 -0.1570796E+01  0.7491905E-08 -0.2109217E+01
  0.5700000E+00  0.2416315E+05 -0.1570796E+01  0.1795421E+00  0.3141347E+01  0.5977809E+06 -0.3601520E-09  0.4906528E+00 -0.3693001E-04  0.8482292E+05 -0.1570796E+01  0.1280899E-07 -0.2272336E-01
  0.6000000E+00  0.2669606E+05 -0.1570796E+01  0.1876980E-01  0.3139109E+01  0.5948554E+06 -0.1213224E-08  0.4052408E+00 -0.3141418E+01  0.9362699E+05 -0.1570796E+01  0.2561799E-08  0.2272336E-01
  0.6299999E+00  0.2934125E+05 -0.1570796E+01  0.1632752E+00 -0.2058917E-03  0.5917534E+06  0.6833217E-09  0.9361351E-01 -0.3141510E+01  0.1028035E+06 -0.1570796E+01  0.8070740E-08  0.1123276E+01
  0.6600000E+00  0.3209566E+05 -0.1570796E+01  0.1286635E+00  0.3141569E+01  0.5884724E+06  0.3938042E-09  0.2897086E+00 -0.4834889E-04  0.1123405E+06 -0.1570796E+01  0.6055346E-08  0.2403383E-01
  0.6899999E+00  0.3495608E+05 -0.1570796E+01  0.1878753E+00  0.6979642E-04  0.5850088E+06 -0.8419921E-09  0.1244089E+00 -0.3140501E+01  0.1222242E+06 -0.1570796E+01  0.3145369E-08 -0.3702012E-01
  0.7200000E+00  0.3791886E+05 -0.1570796E+01  0.1525893E+00 -0.3141404E+01  0.5813598E+06 -0.1418964E-09  0.3756949E+00  0.3141456E+01  0.1324403E+06 -0.1570796E+01  0.8249537E-08 -0.1514319E+01
  0.7500000E+00  0.4098048E+05 -0.1570796E+01  0.1239925E+00 -0.3140944E+01  0.5775199E+06 -0.6109910E-10  0.5069667E+00 -0.3141396E+01  0.1429737E+06 -0.1570796E+01  0.1204072E-07 -0.9036053E+00
  0.7800000E+00  0.4413666E+05 -0.1570796E+01  0.2542162E-01 -0.2626001E-03  0.5734894E+06  0.9312423E-10  0.5895452E+00  0.4640616E-04  0.1538074E+06 -0.1570796E+01  0.1576367E-07 -0.9387423E+00
  0.8100000E+00  0.4738298E+05 -0.1570796E+01  0.1283622E+00 -0.3140924E+01  0.5692611E+06  0.8962772E-10  0.3452663E+00 -0.2763867E-03  0.1649262E+06 -0.1570796E+01  0.1171757E-07  0.1660332E+01
  0.8400000E+00  0.5071513E+05 -0.1570796E+01  0.1811555E-01  0.1908344E-02  0.5648352E+06 -0.1350729E-09  0.5773835E+00  0.1642426E-03  0.1763114E+06 -0.1570796E+01  0.2889939E-08 -0.4816637E+00
  0.8700000E+00  0.5412796E+05 -0.1570796E+01  0.1223579E+00  0.3140874E+01  0.5602038E+06  0.2805506E-08  0.1009692E+00 -0.7851323E-04  0.1879443E+06 -0.1570796E+01  0.8331019E-08 -0.2018820E+01
  0.9000000E+00  0.5761621E+05 -0.1570796E+01  0.9531356E-01  0.5277981E-03  0.5553676E+06  0.9830941E-09  0.4517404E+00  0.5027084E-04  0.1998046E+06 -0.1570796E+01  0.6245603E-08  0.1496169E+01
  0.9299999E+00  0.6117459E+05 -0.1570796E+01  0.4904231E-01 -0.1842505E-02  0.5503208E+06 -0.1837785E-08  0.1972395E+00  0.1253200E-02  0.2118735E+06 -0.1570796E+01  0.1292420E-08  0.3006065E+01
  0.9600000E+00  0.6479687E+05 -0.1570796E+01  0.9684324E-01  0.1329427E-03  0.5450618E+06 -0.8818300E-09  0.5060555E+00  0.3188381E-03  0.2241273E+06 -0.1570796E+01  0.1532454E-07  0.1525201E+01
  0.9899999E+00  0.6847702E+05 -0.1570796E+01  0.1011925E+00 -0.3141442E+01  0.5395884E+06 -0.7953348E-10  0.6567642E+00  0.3066612E-03  0.2365442E+06 -0.1570796E+01  0.1184422E-07 -0.1501940E+01
  0.1020000E+01  0.7220848E+05 -0.1570796E+01  0.1062465E+00 -0.3141153E+01  0.5338953E+06  0.6251900E-10  0.3679745E+00  0.2428086E-03  0.2491011E+06 -0.1570796E+01  0.3336375E-07 -0.1483453E+01
  0.1050000E+01  0.7598418E+05 -0.1570796E+01  0.5187373E-01 -0.3140283E+01  0.5279820E+06  0.1219227E-08  0.2517093E+00 -0.7056625E-04  0.2617738E+06 -0.1570796E+01  0.9665277E-08  0.1594888E+01
  0.1080000E+01  0.7979691E+05 -0.1570796E+01  0.6139472E-01  0.3140548E+01  0.5218476E+06  0.4000388E-08  0.7696354E+00 -0.1953170E-03  0.2745358E+06 -0.1570796E+01  0.2257047E-07  0.1266988E+01
  0.1110000E+01  0.8363907E+05 -0.1570796E+01  0.1074939E+00 -0.9980881E-04  0.5154878E+06  0.2360654E-08  0.3673155E+00  0.3141414E+01  0.2873619E+06 -0.1570796E+01  0.2080914E-07  0.1327853E+01
  0.1140000E+01  0.8750277E+05 -0.1570796E+01  0.7548618E-01  0.1705558E-03  0.5089029E+06  0.1092531E-08  0.2210542E+00 -0.3140348E+01  0.3002233E+06 -0.1570796E+01  0.1806586E-07 -0.1102826E+01
  0.1170000E+01  0.9137934E+05 -0.1570796E+01  0.6644821E-01 -0.3141456E+01  0.5020892E+06 -0.1861424E-08  0.7778228E-01  0.5118891E-03  0.3130932E+06 -0.1570796E+01  0.3093982E-07  0.1525629E+01
  0.1200000E+01  0.9526043E+05 -0.1570796E+01  0.5324031E-01 -0.5911171E-03  0.4950479E+06  0.6145307E-09  0.3632738E+00 -0.4548197E-03  0.3259423E+06 -0.1570796E+01  0.3518074E-07  0.1534389E+01
  0.1230000E+01  0.9913641E+05 -0.1570796E+01  0.3710987E-01  0.3140719E+01  0.4877776E+06  0.4653237E-09  0.2172998E+00 -0.3141349E+01  0.3387404E+06 -0.1570796E+01  0.2809085E-07  0.1467004E+01
  0.1260000E+01  0.1029985E+06 -0.1570796E+01  0.1519210E-01  0.3129979E+01  0.4802774E+06 -0.1290688E-08  0.3469518E+00  0.3140588E+01  0.3514567E+06 -0.1570796E+01  0.8278595E-08 -0.1514518E+01
  0.1290000E+01  0.1068364E+06 -0.1570796E+01  0.7874012E-01  0.3141562E+01  0.4725496E+06  0.4621555E-09  0.1848541E+00 -0.3141441E+01  0.3640595E+06 -0.1570796E+01  0.1209557E-07 -0.1735154E+01
  0.1320000E+01  0.1106402E+06 -0.1570796E+01  0.4044533E-01 -0.3141451E+01  0.4645934E+06 -0.1590848E-08  0.6868748E+00  0.3321808E-03  0.3765169E+06 -0.1570796E+01  0.2067454E-07 -0.1652535E+01
  0.1350000E+01  0.1143998E+06 -0.1570796E+01  0.2746711E+00 -0.3141577E+01  0.4564106E+06 -0.2137568E-08  0.4009236E+00 -0.2319226E-04  0.3887948E+06 -0.1570796E+01  0.1385452E-07 -0.1583401E+01
  0.1380000E+01  0.1181038E+06 -0.1570796E+01  0.5941738E-01 -0.3139474E+01  0.4480036E+06 -0.1596540E-09  0.2299507E+00  0.3141361E+01  0.4008601E+06 -0.1570796E+01  0.1035573E-07  0.1424130E+01
  0.1410000E+01  0.1217413E+06 -0.1570796E+01  0.1250353E+00  0.3141406E+01  0.4393732E+06 -0.3696419E-08  0.5502363E-01  0.3130262E+01  0.4126800E+06 -0.1570796E+01  0.2673247E-07 -0.1644896E+01
  0.1440000E+01  0.1253011E+06 -0.1570796E+01  0.5888749E-01 -0.3157997E-03  0.4305241E+06 -0.3234115E-09  0.1015056E+00 -0.3136788E+01  0.4242183E+06 -0.1570796E+01  0.1221709E-07  0.1845824E+01
  0.1470000E+01  0.1287719E+06 -0.1570796E+01  0.7721509E-02  0.4693352E-02  0.4214583E+06 -0.2111189E-08  0.3317578E+00 -0.3141319E+01  0.4354398E+06 -0.1570796E+01  0.2147381E-07  0.1641331E+01
  0.1500000E+01  0.1321414E+06 -0.1570796E+01  0.1034229E+00  0.3140855E+01  0.4121810E+06  0.3729728E-08  0.2451936E-01  0.2212319E-01  0.4463083E+06 -0.1570796E+01  0.8410956E-08 -0.7266424E+00
  0.1530000E+01  0.1353977E+06 -0.1570796E+01  0.2334907E+00 -0.3141053E+01  0.4026970E+06 -0.1908784E-08  0.2290557E+00  0.3139185E+01  0.4567909E+06 -0.1570796E+01  0.1657396E-07 -0.1819182E+01
  0.1560000E+01  0.1385288E+06 -0.1570796E+01  0.2870940E-02  0.3120830E+01  0.3930135E+06  0.1989787E-09  0.3180274E-01 -0.3568482E-02  0.4668505E+06 -0.1570796E+01  0.1572135E-07 -0.1596716E+01
  0.1590000E+01  0.1415224E+06 -0.1570796E+01  0.4753776E-01 -0.2848724E-02  0.3831330E+06  0.2693257E-08  0.1737370E+00 -0.3140500E+01  0.4764500E+06 -0.1570796E+01  0.3527384E-07  0.1570796E+01
  0.1620000E+01  0.1443654E+06 -0.1570796E+01  0.1166500E-01  0.1026045E-01  0.3730652E+06  0.5915327E-08  0.1725456E+00 -0.9396048E-04  0.4855533E+06 -0.1570796E+01  0.2052908E-07  0.1508378E+01
  0.1650000E+01  0.1470464E+06 -0.1570796E+01  0.5592746E-01 -0.3139001E+01  0.3628181E+06  0.2628519E-10  0.2614632E+00 -0.3140894E+01  0.4941288E+06 -0.1570796E+01  0.1367945E-07 -0.1410544E+01
  0.1680000E+01  0.1495522E+06 -0.1570796E+01  0.6348427E-01 -0.3140000E+01  0.3523984E+06 -0.5380003E-08  0.5609007E+00  0.3140847E+01  0.5021385E+06 -0.1570796E+01  0.3471285E-07 -0.1449769E+01
  0.1710000E+01  0.1518711E+06 -0.1570796E+01  0.1730729E+00  0.3636762E-03  0.3418178E+06  0.2226427E-08  0.9504469E-02  0.1121318E-01  0.5095468E+06 -0.1570796E+01  0.7052741E-07 -0.1648454E+01
  0.1740000E+01  0.1539896E+06 -0.1570796E+01  0.1325668E-01 -0.6078898E-02  0.3310831E+06  0.5530498E-09  0.1856572E+00  0.3138679E+01  0.5163225E+06 -0.1570796E+01  0.3403662E-07  0.1520326E+01
  0.1770000E+01  0.1558965E+06 -0.1570796E+01  0.9221013E-01 -0.3268205E-02  0.3202089E+06 -0.8601295E-08  0.6459458E-02 -0.5446918E-01  0.5224309E+06 -0.1570796E+01  0.4768586E-07 -0.1515839E+01
  0.1800000E+01  0.1575799E+06 -0.1570796E+01  0.3204343E-01 -0.2410718E-02  0.3092045E+06 -0.6840941E-08  0.2324778E+00 -0.2851041E-03  0.5278394E+06 -0.1570796E+01  0.3196896E-07 -0.1504062E+01
  0.1830000E+01  0.1590280E+06 -0.1570796E+01  0.7596333E-01  0.3139528E+01  0.2980829E+06 -0.7275342E-08  0.2367126E+00 -0.1263038E-02  0.5325189E+06 -0.1570796E+01  0.6287252E-08  0.1554594E+01
  0.1860000E+01  0.1602289E+06 -0.1570796E+01  0.1825461E+00  0.1136284E-02  0.2868575E+06  0.4541346E-08  0.1372514E+00  0.3139177E+01  0.5364388E+06 -0.1570796E+01  0.6918625E-08 -0.1450355E+01
  0.1890000E+01  0.1611720E+06 -0.1570796E+01  0.4804956E-01 -0.3140660E+01  0.2755424E+06 -0.5683094E-08  0.5352058E-01  0.3127239E+01  0.5395702E+06 -0.1570796E+01  0.6525719E-07 -0.1526294E+01
  0.1920000E+01  0.1618474E+06 -0.1570796E+01  0.6919412E-01 -0.1109499E-02  0.2641528E+06 -0.1776274E-08  0.1152735E+00 -0.3141421E+01  0.5418884E+06 -0.1570796E+01  0.7334165E-08  0.1570796E+01
  0.1950000E+01  0.1622445E+06 -0.1570796E+01  0.3885864E-01 -0.3136721E+01  0.2527030E+06 -0.7638363E-08  0.5219675E+00 -0.1409132E-03  0.5433664E+06 -0.1570796E+01  0.2865060E-07  0.1541333E+01
  0.1980000E+01  0.1623540E+06 -0.1570796E+01  0.1118626E+00  0.3140446E+01  0.2412100E+06  0.9528438E-08  0.1741487E+00 -0.3903862E-02  0.5439837E+06 -0.1570796E+01  0.9221139E-08  0.1206115E+01
  0.2010000E+01  0.1621682E+06 -0.1570796E+01  0.2965117E-01  0.2573050E-03  0.2296905E+06  0.6643194E-10  0.3987861E+00 -0.4334491E-04  0.5437184E+06 -0.1570796E+01  0.3598092E-07 -0.1548955E+01
  0.2040000E+01  0.1616788E+06 -0.1570796E+01  0.2979567E-01 -0.1232275E-02  0.2181629E+06 -0.9853104E-08  0.3595802E-01  0.3140343E+01  0.5425547E+06 -0.1570796E+01  0.2405780E-08 -0.2175576E+01
  0.2070000E+01  0.1608787E+06 -0.1570796E+01  0.1656735E-01  0.3137851E+01  0.2066442E+06 -0.1569119E-09  0.1822055E+00  0.2401127E-02  0.5404743E+06 -0.1570796E+01  0.1159779E-08 -0.3058789E+00
  0.2100000E+01  0.1597625E+06 -0.1570796E+01  0.4746975E-01  0.3947725E-02  0.1951545E+06 -0.1044791E-07  0.5187227E-01  0.1686829E-02  0.5374677E+06 -0.1570796E+01  0.3150191E-07 -0.1504228E+01
  0.2130000E+01  0.1583253E+06 -0.1570796E+01  0.6579404E-01 -0.3140382E+01  0.1837124E+06  0.1639358E-07  0.3167157E+00 -0.2433753E-02  0.5335234E+06 -0.1570796E+01  0.5908866E-08 -0.1901892E+01
  0.2160000E+01  0.1565628E+06 -0.1570796E+01  0.1791435E-01  0.1062062E-01  0.1723382E+06  0.1066905E-07  0.1256228E+00 -0.3140876E+01  0.5286359E+06 -0.1570796E+01  0.7854369E-08  0.1779819E+01
  0.2190000E+01  0.1544728E+06 -0.1570796E+01  0.6430179E-02  0.3117044E+01  0.1610514E+06 -0.1847524E-07  0.1430802E-01 -0.4570664E-01  0.5228001E+06 -0.1570796E+01  0.1979916E-08 -0.1541393E+01
  0.2220000E+01  0.1520537E+06 -0.1570796E+01  0.9213579E-02 -0.5330661E-02  0.1498731E+06 -0.2450474E-07  0.3434553E-02  0.2904039E+01  0.5160193E+06 -0.1570796E+01  0.4665699E-08  0.1508378E+01
  0.2250000E+01  0.1493059E+06 -0.1570796E+01  0.2750111E-01  0.1733884E-04  0.1388234E+06 -0.1391800E-07  0.1702782E+00  0.6678815E-03  0.5082956E+06 -0.1570796E+01  0.2212083E-07  0.1557639E+01
  0.2280000E+01  0.1462303E+06 -0.1570796E+01  0.7567600E-01  0.3137919E+01  0.1279252E+06 -0.1185335E-08  0.2926171E+00 -0.1332165E-03  0.4996371E+06 -0.1570796E+01  0.4689894E-07 -0.1613007E+01
  0.2310000E+01  0.1428300E+06 -0.1570796E+01  0.1222204E-01 -0.6086305E-02  0.1171976E+06 -0.3743167E-09  0.1549536E+00  0.3138875E+01  0.4900551E+06 -0.1570796E+01  0.9337387E-08  0.2228012E+01
  0.2340000E+01  0.1391097E+06 -0.1570796E+01  0.2461531E-01  0.8891668E-02  0.1066631E+06 -0.2865590E-07  0.5439049E-01 -0.3133911E+01  0.4795653E+06 -0.1570796E+01  0.2525595E-07  0.1436722E+01
  0.2370000E+01  0.1350748E+06 -0.1570796E+01  0.1725615E-01  0.1934422E-01  0.9634188E+05 -0.9225733E-08  0.2372282E+00 -0.3499480E-02  0.4681871E+06 -0.1570796E+01  0.9559002E-08 -0.1448707E+01
  0.2400000E+01  0.1307334E+06 -0.1570796E+01  0.1746534E-01  0.3121402E+01  0.8625580E+05  0.1945918E-07  0.1506950E+00  0.5518882E-02  0.4559447E+06 -0.1570796E+01  0.1491661E-07 -0.1703864E+01
  0.2430000E+01  0.1260947E+06 -0.1570796E+01  0.3271536E-02 -0.7425667E-01  0.7642533E+05 -0.2637957E-07  0.2186628E+00 -0.3140685E+01  0.4428642E+06 -0.1570796E+01  0.2218476E-07  0.1544556E+01
  0.2460000E+01  0.1211692E+06 -0.1570796E+01  0.8556050E-02  0.3394669E-01  0.6687048E+05  0.4207147E-09  0.3745520E-01 -0.3125432E+01  0.4289802E+06 -0.1570796E+01  0.7659783E-08  0.1769682E+01
  0.2490000E+01  0.1159702E+06 -0.1570796E+01  0.9893297E-03  0.2638002E+00  0.5761128E+05 -0.4345321E-07  0.9268907E-01  0.3134923E+01  0.4143269E+06 -0.1570796E+01  0.3214899E-07  0.1516453E+01
  0.2520000E+01  0.1105121E+06 -0.1570796E+01  0.2475002E-02 -0.3128347E+01  0.4866729E+05  0.1914509E-07  0.3856172E-01 -0.3124886E+01  0.3989472E+06 -0.1570796E+01  0.2082501E-07  0.1390943E+01
  0.2550000E+01  0.1048106E+06 -0.1570796E+01  0.2620460E-01  0.3125597E+01  0.4005648E+05 -0.9933987E-08  0.3390218E-01 -0.3140809E+01  0.3828830E+06 -0.1570796E+01  0.1303852E-07 -0.1570796E+01
  0.2580000E+01  0.9888409E+05 -0.1570796E+01  0.3456174E-02  0.3135798E+01  0.3179729E+05 -0.3827019E-07  0.2717777E-01  0.3122023E+01  0.3661826E+06 -0.1570796E+01  0.1577171E-07 -0.1263343E+01
  0.2610000E+01  0.9275196E+05 -0.1570796E+01  0.7968133E-02 -0.1288718E-01  0.2390629E+05 -0.1761365E-07  0.8326943E-01  0.4680395E-02  0.3489014E+06 -0.1570796E+01  0.1033484E-07 -0.2359804E+01
  0.2640000E+01  0.8643548E+05 -0.1570796E+01  0.3275878E-02  0.3075469E+01  0.1639894E+05 -0.4335065E-07  0.2202766E-01  0.3023255E-01  0.3310930E+06 -0.1570796E+01  0.4184182E-08 -0.1403075E+01
  0.2670000E+01  0.7995732E+05 -0.1570796E+01  0.3694587E-02  0.3109015E+01  0.9290523E+04 -0.2944778E-06  0.1485227E-01 -0.3128406E+01  0.3128187E+06 -0.1570796E+01  0.1230294E-07 -0.1437932E+01
  0.2700000E+01  0.7334212E+05 -0.1570796E+01  0.7106208E-03 -0.4144704E-01  0.2593690E+04  0.4543731E-06  0.1944364E-01  0.3128933E+01  0.2941419E+06 -0.1570796E+01  0.1257693E-07 -0.1940130E+01
  0.2730000E+01  0.6661555E+05 -0.1570796E+01  0.1248843E-02 -0.3138443E+01  0.3679021E+04 -0.3141593E+01  0.4089214E-01  0.3140657E+01  0.2751288E+06 -0.1570796E+01  0.2713058E-07 -0.1639505E+01
  0.2760000E+01  0.5980490E+05 -0.1570796E+01  0.7579747E-02 -0.3086771E+01  0.9517365E+04  0.3141593E+01  0.1993776E-01  0.3117866E+01  0.2558485E+06 -0.1570796E+01  0.2310602E-07 -0.1383282E+01
  0.2790000E+01  0.5293829E+05 -0.1570796E+01  0.2291835E-02 -0.3069959E+01  0.1491247E+05  0.3141593E+01  0.2767527E-01  0.1900984E-01  0.2363750E+06 -0.1570796E+01  0.2294120E-07  0.1545421E+01
  0.2820000E+01  0.4604555E+05 -0.1570796E+01  0.3525264E-02  0.1657045E-01  0.1985710E+05 -0.3141593E+01  0.2626487E-01 -0.3126317E+01  0.2167800E+06 -0.1570796E+01  0.1141479E-07 -0.1059240E+01
  0.2850000E+01  0.3915710E+05 -0.1570796E+01  0.5669065E-02  0.3123760E+01  0.2434566E+05  0.3141593E+01  0.1205880E-01  0.1511576E-01  0.1971419E+06 -0.1570796E+01  0.1625870E-07  0.1991202E+01
  0.2880000E+01  0.3230408E+05 -0.1570796E+01  0.1288333E-01 -0.1306559E-01  0.2837478E+05 -0.3141593E+01  0.3624038E-02 -0.1332862E+00  0.1775376E+06 -0.1570796E+01  0.1322595E-07  0.1124863E+01
  0.2910000E+01  0.2551849E+05 -0.1570796E+01  0.9857198E-02 -0.2031731E-02  0.3194270E+05 -0.3141593E+01  0.2188425E-01  0.2456963E-01  0.1580469E+06 -0.1570796E+01  0.1087222E-07 -0.1343997E+01
  0.2940000E+01  0.1883260E+05 -0.1570796E+01  0.3772221E-02  0.3102902E+01  0.3504979E+05 -0.3141593E+01  0.1101918E-01  0.3130633E+01  0.1387479E+06 -0.1570796E+01  0.7082225E-08 -0.1129204E+01
  0.2970000E+01  0.1227904E+05 -0.1570796E+01  0.7062990E-03  0.3086881E+01  0.3769840E+05 -0.3141593E+01  0.7359781E-02 -0.2436329E-01  0.1197213E+06 -0.1570796E+01  0.1778832E-07  0.1822124E+01
  0.3000000E+01  0.5890068E+04 -0.1570796E+01  0.4969881E-02 -0.4317555E-02  0.3989290E+05 -0.3141593E+01  0.5531377E-03  0.2169498E+01  0.1010468E+06 -0.1570796E+01  0.2003367E-07  0.1538831E+01
  0.3030000E+01  0.3017882E+03  0.1570793E+01  0.9548077E-02 -0.5193850E-02  0.4163997E+05  0.3141593E+01  0.1280496E-01  0.1383454E-01  0.8280252E+05 -0.1570796E+01  0.1944659E-07 -0.1279340E+01
  0.3060000E+01  0.6264786E+04  0.1570796E+01  0.2454573E-02 -0.3134988E+01  0.4294821E+05 -0.3141593E+01  0.3739225E-01 -0.5585537E-02  0.6506546E+05 -0.1570796E+01  0.8885014E-08 -0.1946437E+01
  0.3090000E+01  0.1196781E+05  0.1570796E+01  0.3100921E-01  0.9072594E-03  0.4382844E+05  0.3141593E+01  0.2450849E-01 -0.3138251E+01  0.4791114E+05 -0.1570796E+01  0.1130881E-07  0.1516725E+01
  0.3120000E+01  0.1738076E+05  0.1570796E+01  0.1216392E-01  0.3134811E+01  0.4429335E+05  0.3141593E+01  0.2398849E-03 -0.7925139E+00  0.3141240E+05 -0.1570796E+01  0.2127122E-07 -0.1708049E+01
  0.3150000E+01  0.2247491E+05  0.1570796E+01  0.3537819E-02 -0.1509624E-01  0.4435815E+05  0.3141593E+01  0.1283181E-01 -0.2069061E-01  0.1563854E+05 -0.1570796E+01  0.2720391E-08  0.2024875E+01
  0.3180000E+01  0.2722272E+05  0.1570796E+01  0.2428836E-03 -0.4910055E-01  0.4403957E+05 -0.3141593E+01  0.2901522E-02 -0.5294233E-01  0.6561833E+03 -0.1570803E+01  0.2505173E-07 -0.1465463E+01
  0.3210000E+01  0.3159879E+05  0.1570796E+01  0.1721362E-01 -0.3138379E+01  0.4335654E+05 -0.3141593E+01  0.6138394E-02 -0.8525603E-02  0.1347329E+05  0.1570797E+01  0.2347080E-08  0.7675869E+00
  0.3240000E+01  0.3557952E+05  0.1570796E+01  0.1205596E-01 -0.3134987E+01  0.4232996E+05 -0.3141593E+01  0.4081879E-02 -0.3110514E+01  0.2669236E+05  0.1570796E+01  0.1340105E-07  0.1615332E+01
  0.3270000E+01  0.3914382E+05  0.1570796E+01  0.1979035E-02 -0.6505541E-02  0.4098190E+05  0.3141593E+01  0.2687805E-01  0.3129333E+01  0.3894915E+05  0.1570796E+01  0.5767260E-08 -0.4038208E-01
  0.3300000E+01  0.4227299E+05  0.1570796E+01  0.7839912E-02 -0.1344201E-01  0.3933679E+05  0.3141593E+01  0.1658479E-01  0.2055732E-02  0.5019739E+05  0.1570796E+01  0.1099308E-07 -0.1996547E+01
  0.3330000E+01  0.4495119E+05  0.1570796E+01  0.1620603E-01 -0.3140592E+01  0.3742002E+05 -0.3141593E+01  0.2970916E-01  0.4012554E-02  0.6039700E+05  0.1570796E+01  0.8789935E-08 -0.1770789E+01
  0.3360000E+01  0.4716553E+05  0.1570796E+01  0.1023293E-01 -0.3140754E+01  0.3525866E+05  0.3141593E+01  0.4662973E-01  0.3141424E+01  0.6951448E+05  0.1570796E+01  0.5167057E-08  0.1963854E+01
  0.3390000E+01  0.4890660E+05  0.1570796E+01  0.1252331E-01 -0.1168958E-01  0.3288073E+05 -0.3141593E+01  0.9544680E-02  0.6282313E-02  0.7752359E+05  0.1570796E+01  0.8675871E-08  0.1368138E+01
  0.3420000E+01  0.5016796E+05  0.1570796E+01  0.1332283E-01 -0.3141235E+01  0.3031530E+05  0.3141593E+01  0.1632607E-01 -0.3891855E-02  0.8440508E+05  0.1570796E+01  0.3171650E-08 -0.2317253E+01
  0.3450000E+01  0.5094721E+05  0.1570796E+01  0.1862173E-02  0.3080611E+01  0.2759208E+05  0.3141593E+01  0.1680963E-01  0.3134664E+01  0.9014804E+05  0.1570796E+01  0.3613097E-08  0.1619146E+01
  0.3480000E+01  0.5124549E+05  0.1570796E+01  0.1034822E-01 -0.3133022E+01  0.2474181E+05  0.3141593E+01  0.9639906E-02  0.7691870E-02  0.9474843E+05  0.1570796E+01  0.9946530E-08  0.5685245E+00
  0.3510000E+01  0.5106759E+05  0.1570796E+01  0.1486189E-02  0.2214016E-01  0.2179489E+05  0.3141593E+01  0.7673874E-02 -0.9848990E-02  0.9821108E+05  0.1570796E+01  0.6989041E-08  0.1704449E+01
  0.3540000E+01  0.5042243E+05  0.1570796E+01  0.5890782E-03 -0.1233510E+00  0.1878244E+05  0.3141593E+01  0.1160000E-01  0.3130612E+01  0.1005493E+06  0.1570796E+01  0.7183165E-08  0.1489674E+01
  0.3570000E+01  0.4932272E+05  0.1570796E+01  0.1670060E-02 -0.3072442E+01  0.1573494E+05  0.3141593E+01  0.2764053E-01 -0.3655144E-02  0.1017839E+06  0.1570796E+01  0.9604969E-08 -0.2300458E+01
  0.3600000E+01  0.4778532E+05  0.1570796E+01  0.3801736E-02  0.3114999E+01  0.1268300E+05  0.3141593E+01  0.6365860E-02 -0.3136443E+01  0.1019438E+06  0.1570796E+01  0.1475794E-07 -0.1274617E+01
  0.3630000E+01  0.4583037E+05  0.1570796E+01  0.5628592E-02 -0.3140068E+01  0.9656285E+04  0.3141593E+01  0.1055820E-02  0.6697561E-01  0.1010667E+06  0.1570796E+01  0.1416254E-08  0.1651487E+00
  0.3660000E+01  0.4348252E+05  0.1570796E+01  0.3048746E-02 -0.2295435E-01  0.6683599E+04  0.3141593E+01  0.1823484E-01  0.3135428E+01  0.9919768E+05  0.1570796E+01  0.3281179E-07 -0.1464155E+01
  0.3690000E+01  0.4076974E+05  0.1570796E+01  0.6237468E-03  0.3100730E+01  0.3792703E+04  0.3141592E+01  0.3362620E-01 -0.2570220E-04  0.9638952E+05  0.1570796E+01  0.4561439E-08 -0.5694207E+00
  0.3720000E+01  0.3772344E+05  0.1570796E+01  0.1535806E-02 -0.2255053E-01  0.1010058E+04  0.3141592E+01  0.4648003E-02 -0.3144572E-01  0.9270241E+05  0.1570796E+01  0.7496270E-08 -0.2770098E+01
  0.3750000E+01  0.3437835E+05  0.1570796E+01  0.2040099E-02  0.3082775E+01  0.1639633E+04  0.6320960E-06  0.3652652E-03 -0.2930419E+01  0.8820270E+05  0.1570796E+01  0.1306840E-08 -0.7775243E+00
  0.3780000E+01  0.3077230E+05  0.1570796E+01  0.4157963E-03 -0.4761038E-01  0.4133365E+04  0.4884467E-06  0.4783978E-03 -0.1483725E+00  0.8296366E+05  0.1570796E+01  0.8635995E-08  0.1462744E+01
  0.3810000E+01  0.2694554E+05  0.1570796E+01  0.1859263E-03  0.2734175E+01  0.6450232E+04  0.2236988E-06  0.9058600E-02 -0.3124543E+01  0.7706378E+05  0.1570796E+01  0.8587998E-08  0.1181480E+01
  0.3840000E+01  0.2294098E+05  0.1570796E+01  0.4142883E-03 -0.2715013E+00  0.8571560E+04  0.2730884E-06  0.1869651E-01  0.3134761E+01  0.7058666E+05  0.1570796E+01  0.2480084E-07  0.1552019E+01
  0.3870000E+01  0.1880323E+05  0.1570796E+01  0.2597250E-02 -0.3084648E+01  0.1048101E+05 -0.2693323E-07  0.1637739E-02  0.1848945E-01  0.6362001E+05  0.1570796E+01  0.1125577E-07  0.1508700E+01
  0.3900000E+01  0.1457839E+05  0.1570796E+01  0.2352919E-02  0.1317313E-01  0.1216496E+05  0.1360941E-06  0.2989359E-03 -0.3850976E+00  0.5625491E+05  0.1570796E+01  0.3094026E-07  0.1668780E+01
  0.3930000E+01  0.1031375E+05  0.1570796E+01  0.6521775E-02 -0.3136840E+01  0.1361236E+05  0.1141268E-06  0.7054901E-03  0.3015372E+01  0.4858462E+05  0.1570796E+01  0.3812046E-08  0.1224611E+00
  0.3960000E+01  0.6057067E+04  0.1570796E+01  0.1890255E-03  0.1493889E+00  0.1481501E+05  0.7016565E-07  0.1126609E-02 -0.3117783E+01  0.4070454E+05  0.1570796E+01  0.1421662E-07 -0.1706324E+01
  0.3990000E+01  0.1856107E+04  0.1570796E+01  0.1516004E-02  0.3128067E+01  0.1576763E+05  0.7717638E-07  0.1084078E-02 -0.3023437E+01  0.3271052E+05  0.1570796E+01  0.3535678E-07 -0.1704545E+01
  0.4020000E+01  0.2242085E+04 -0.1570796E+01  0.6318538E-02  0.1471647E-01  0.1646781E+05  0.5756394E-07  0.5989568E-02 -0.3136537E+01  0.2469715E+05  0.1570796E+01  0.8789387E-07 -0.1568147E+01
  0.4050000E+01  0.6191072E+04 -0.1570796E+01  0.6305119E-02  0.6655224E-02  0.1691611E+05  0.4442483E-07  0.4962402E-03  0.2527569E+00  0.1675897E+05  0.1570796E+01  0.2328488E-07 -0.1583296E+01
  0.4080000E+01  0.9946452E+04 -0.1570796E+01  0.3170281E-02  0.1985523E-01  0.1711606E+05  0.1983564E-07  0.7221683E-02  0.6718454E-02  0.8987223E+04  0.1570796E+01  0.4067162E-07 -0.1616610E+01
  0.4110001E+01  0.1346615E+05 -0.1570796E+01  0.4490213E-02 -0.2654873E-02  0.1707403E+05  0.5719579E-07  0.7017874E-03 -0.3050760E+01  0.1469288E+04  0.1570793E+01  0.2048943E-07  0.1576478E+01
  0.4140000E+01  0.1671033E+05 -0.1570796E+01  0.9868685E-02 -0.3140675E+01  0.1679916E+05  0.7323221E-07  0.6343026E-02 -0.3122760E+01  0.5710714E+04 -0.1570795E+01  0.3064590E-07 -0.1440066E+01
  0.4170000E+01  0.1964293E+05 -0.1570796E+01  0.5511625E-03  0.3080995E+01  0.1630337E+05  0.3498033E-07  0.8238383E-02 -0.3140247E+01  0.1247509E+05 -0.1570796E+01  0.7964685E-08  0.1069554E+01
  0.4200000E+01  0.2223150E+05 -0.1570796E+01  0.7425771E-02  0.5329772E-02  0.1560088E+05  0.3753352E-07  0.3372321E-02 -0.2403757E-02  0.1875221E+05 -0.1570796E+01  0.6252381E-07  0.1587555E+01
  0.4230000E+01  0.2444789E+05 -0.1570796E+01  0.2873816E-02 -0.1045345E-01  0.1470851E+05  0.1821955E-07  0.4649927E-02  0.2197251E-01  0.2447747E+05 -0.1570796E+01  0.6659692E-07 -0.1585655E+01
  0.4260000E+01  0.2626870E+05 -0.1570796E+01  0.2450243E-02  0.3138090E+01  0.1364495E+05 -0.3368799E-07  0.5656109E-02 -0.3131581E+01  0.2959435E+05 -0.1570796E+01  0.1418214E-06  0.1590498E+01
  0.4290000E+01  0.2767566E+05 -0.1570796E+01  0.8568553E-02 -0.3139033E+01  0.1243090E+05 -0.8745859E-08  0.1043793E-02 -0.3107895E+01  0.3405516E+05 -0.1570796E+01  0.9780058E-07 -0.1586271E+01
  0.4320000E+01  0.2865595E+05 -0.1570796E+01  0.7374732E-02 -0.1099212E-01  0.1108854E+05 -0.1204075E-08  0.1119888E-01  0.3140741E+01  0.3782130E+05 -0.1570796E+01  0.2404089E-07 -0.1641069E+01
  0.4350000E+01  0.2920229E+05 -0.1570796E+01  0.1441136E-02  0.2912119E-01  0.9641351E+04  0.2601465E-07  0.8778323E-03  0.3074049E+01  0.4086398E+05 -0.1570796E+01  0.7806880E-07 -0.1613308E+01
  0.4380000E+01  0.2931350E+05 -0.1570796E+01  0.1514803E-02 -0.3119556E+01  0.8113852E+04 -0.6746599E-07  0.2918722E-02 -0.9108109E-02  0.4316446E+05 -0.1570796E+01  0.6333860E-07  0.1587339E+01
  0.4410000E+01  0.2899430E+05 -0.1570796E+01  0.3050851E-02  0.1852219E-01  0.6531024E+04 -0.6308157E-07  0.1146721E-02  0.3108112E+01  0.4471450E+05 -0.1570796E+01  0.5322014E-07  0.1597049E+01
  0.4440000E+01  0.2825546E+05 -0.1570796E+01  0.1838928E-02  0.3113585E+01  0.4918300E+04 -0.3529039E-07  0.2250456E-02  0.3105644E+01  0.4551619E+05 -0.1570796E+01  0.3923460E-07  0.1665889E+01
  0.4470000E+01  0.2711367E+05 -0.1570796E+01  0.1531587E-02 -0.3080611E+01  0.3300865E+04 -0.5749438E-07  0.1336120E-02 -0.5754754E-02  0.4558198E+05 -0.1570796E+01  0.2340064E-07 -0.1580746E+01
  0.4500000E+01  0.2559152E+05 -0.1570796E+01  0.2366102E-02 -0.3112669E+01  0.1703565E+04 -0.1183860E-05  0.2466173E-02  0.1633889E-01  0.4493461E+05 -0.1570796E+01  0.1045415E-06 -0.1574137E+01
  0.4530000E+01  0.2371701E+05 -0.1570796E+01  0.6649955E-03  0.3069758E+01  0.1504030E+03 -0.5569792E-05  0.2611719E-02  0.3101407E+01  0.4360664E+05 -0.1570796E+01  0.5148433E-07  0.1559490E+01