VARIABLES="w (rad/s)"  
"A   1   1" "B   1   1"
"A   1   2" "B   1   2"
"A   1   3" "B   1   3"
"A   1   4" "B   1   4"
"A   1   5" "B   1   5"
"A   1   6" "B   1   6"
Zone t="Motion of body    1 in DoF   1",I=   308,F=POINT
  0.3000000E-01  0.2009705E+05  0.2058883E-07 -0.6437302E-05 -0.5731249E-14  0.2078056E-02  0.1073546E-06 -0.8195639E-05 -0.4812057E-13  0.7108526E+05  0.8547570E-07 -0.5238689E-09 -0.4675622E-20
  0.6000000E-01  0.2010445E+05  0.7149554E-05 -0.5006790E-05 -0.1002132E-12  0.3643751E-02  0.1042983E-05 -0.9499490E-04  0.7397816E-12  0.7110811E+05  0.2508934E-04 -0.2663000E-08 -0.1372600E-17
  0.9000000E-01  0.2011644E+05  0.1180823E-03 -0.9536743E-05  0.9048761E-12  0.2163410E-02  0.2174259E-05 -0.7343292E-04  0.4882494E-12  0.7114659E+05  0.4174922E-03 -0.1804437E-08  0.1366095E-16
  0.1200000E+00  0.2013406E+05  0.8854541E-03  0.3278255E-05  0.5323955E-11  0.1604557E-02  0.4598429E-05 -0.2039969E-04 -0.1601876E-10  0.7120034E+05  0.3126909E-02 -0.1862645E-08  0.2689515E-15
  0.1500000E+00  0.2015647E+05  0.4217389E-02  0.2092123E-04 -0.2319211E-11  0.1202583E-02  0.7520859E-05 -0.7773936E-04  0.2150386E-10  0.7127018E+05  0.1490323E-01 -0.2139132E-08  0.2040035E-15
  0.1800000E+00  0.2018399E+05  0.1508269E-01  0.1323223E-04  0.2058641E-10  0.4307747E-02  0.2708254E-04  0.5528331E-05 -0.3763057E-09  0.7135682E+05  0.5333083E-01 -0.4409230E-08  0.5085931E-14
  0.2100000E+00  0.2021744E+05  0.4425718E-01 -0.1960993E-04  0.2253728E-10  0.3565788E-02  0.3610846E-04 -0.3693998E-04 -0.2050319E-09  0.7146025E+05  0.1563958E+00 -0.4176400E-08  0.1445510E-14
  0.2400000E+00  0.2025668E+05  0.1123465E+00  0.1561642E-04 -0.7639755E-10 -0.1375437E-02 -0.1228798E-04  0.1317263E-04  0.4034882E-09  0.7158256E+05  0.3968563E+00 -0.7712515E-08  0.2803091E-13
  0.2700000E+00  0.2030178E+05  0.2552062E+00  0.1710653E-04 -0.1188528E-09 -0.3280163E-02 -0.5785886E-04 -0.1114905E-03  0.1615072E-08  0.7172352E+05  0.9009213E+00  0.1396984E-08 -0.5731415E-13
  0.3000000E+00  0.2035318E+05  0.5311218E+00 -0.1639128E-04  0.2182787E-11 -0.3303766E-02 -0.1005962E-03 -0.1989305E-04 -0.2131492E-08  0.7188423E+05  0.1873321E+01 -0.7305061E-08  0.2984280E-13
  0.3300000E+00  0.2041114E+05  0.1029732E+01 -0.5364418E-06 -0.2919696E-08 -0.1454115E-02 -0.6805598E-04 -0.4799664E-04 -0.4676076E-08  0.7206633E+05  0.3629173E+01  0.7872586E-08  0.1119638E-12
  0.3600000E+00  0.2047654E+05  0.1882801E+01  0.1674891E-04  0.7334165E-10 -0.3363848E-02 -0.1498600E-03 -0.9357929E-05 -0.2425513E-08  0.7227205E+05  0.6629541E+01 -0.5340553E-08 -0.2494005E-12
  0.3900000E+00  0.2054984E+05  0.3277170E+01 -0.7152557E-06 -0.3314344E-08 -0.2417326E-02 -0.1430757E-03 -0.2968311E-04 -0.3914218E-07  0.7250208E+05  0.1152780E+02  0.1455192E-10  0.2604850E-12
  0.4200000E+00  0.2063089E+05  0.5468795E+01 -0.8285046E-05  0.1153909E-07 -0.5626678E-02 -0.3735469E-03 -0.3197789E-04  0.7328054E-08  0.7275654E+05  0.1921655E+02  0.1455192E-08 -0.5789502E-12
  0.4500000E+00  0.2072047E+05  0.8800682E+01 -0.1364946E-04  0.8643838E-08 -0.5544901E-02 -0.5073325E-03 -0.4065037E-04 -0.2541419E-07  0.7303985E+05  0.3088940E+02  0.2706656E-08 -0.1144684E-11
  0.4800000E+00  0.2081963E+05  0.1372004E+02 -0.1096725E-04  0.2492219E-07 -0.6519079E-02 -0.6808275E-03  0.7617474E-04 -0.1239125E-07  0.7335161E+05  0.4809711E+02  0.3507012E-08 -0.3956302E-12
  0.5100000E+00  0.2092775E+05  0.2079779E+02  0.5424023E-05  0.1116190E-07 -0.5897045E-02 -0.6952862E-03  0.9834766E-06 -0.2731103E-08  0.7369398E+05  0.7281458E+02  0.1295120E-08  0.9044925E-11
  0.5400000E+00  0.2104676E+05  0.3075257E+02  0.2568960E-04  0.1961365E-07 -0.3647566E-02 -0.5371521E-03 -0.6324053E-04  0.1737883E-06  0.7406901E+05  0.1075192E+03  0.4569301E-08  0.1289209E-11
  0.5700000E+00  0.2117569E+05  0.4447089E+02  0.1043081E-04  0.1539476E-07 -0.2176046E-02 -0.4126104E-03  0.5364418E-04  0.2245844E-06  0.7447738E+05  0.1552590E+03  0.6242772E-08 -0.8424195E-12
  0.6000000E+00  0.2131627E+05  0.6303006E+02 -0.2110004E-04  0.1173466E-07  0.7653236E-03  0.6052293E-04  0.5680323E-04 -0.1634471E-07  0.7492071E+05  0.2197199E+03 -0.5646143E-08  0.1978151E-11
  0.6299999E+00  0.2146769E+05  0.8772063E+02 -0.1907349E-05 -0.4693865E-07  0.1971245E-02  0.4174313E-03  0.2244115E-04  0.3631145E-06  0.7540056E+05  0.3053052E+03  0.1644366E-08  0.2034085E-10
  0.6600000E+00  0.2163091E+05  0.1200704E+03  0.2908707E-04 -0.8666888E-07  0.1463890E-03 -0.1423275E-03  0.1493096E-04 -0.2885889E-06  0.7591540E+05  0.4172030E+03  0.7566996E-09 -0.2063416E-10
  0.6899999E+00  0.2180612E+05  0.1618605E+03  0.4410744E-05  0.1156703E-07  0.1059294E-02  0.3905221E-03  0.2378225E-04 -0.1735054E-06  0.7646903E+05  0.5614365E+03 -0.1309672E-08 -0.2180741E-10
  0.7200000E+00  0.2199262E+05  0.2151443E+03  0.7390976E-05  0.1971424E-06  0.2586842E-03  0.2689987E-03 -0.9369850E-04  0.4861504E-06  0.7705726E+05  0.7449133E+03  0.1248554E-07  0.8021743E-11
  0.7500000E+00  0.2219121E+05  0.2822625E+03  0.5722046E-05 -0.5587935E-08 -0.8947849E-03 -0.2712859E-03  0.3260374E-04  0.6073387E-06  0.7768116E+05  0.9754689E+03 -0.7872586E-08 -0.4945377E-10
  0.7800000E+00  0.2240056E+05  0.3658401E+03 -0.4494190E-04  0.7990747E-07 -0.3553867E-02 -0.1032349E-02  0.2038479E-04  0.1901435E-05  0.7833936E+05  0.1261849E+04 -0.3754394E-08 -0.6455593E-10
  0.8100000E+00  0.2262021E+05  0.4687998E+03 -0.9894371E-05 -0.3998168E-06 -0.2442122E-02 -0.9764340E-03  0.4732609E-04  0.2030013E-05  0.7902740E+05  0.1613719E+04  0.5515176E-08 -0.1473381E-11
  0.8400000E+00  0.2284995E+05  0.5943392E+03  0.3266335E-04  0.4631281E-06 -0.3664732E-02 -0.1657880E-02  0.6061792E-04  0.9442493E-06  0.7974326E+05  0.2041589E+04  0.3026798E-08 -0.1111584E-09
  0.8700000E+00  0.2308775E+05  0.7459103E+03  0.5233288E-04  0.2625212E-06 -0.3034592E-02 -0.1280682E-02 -0.1013279E-05 -0.2874769E-05  0.8048287E+05  0.2556747E+04  0.4496542E-08  0.2120578E-09
  0.9000000E+00  0.2333214E+05  0.9271952E+03 -0.2741814E-05  0.9723007E-07  0.2622604E-03  0.1119500E-02 -0.2026558E-05  0.5506910E-06  0.8123915E+05  0.3171096E+04 -0.2837623E-08 -0.9249561E-10
  0.9299999E+00  0.2358161E+05  0.1142049E+04  0.1633167E-04 -0.1202188E-05 -0.1697779E-02  0.1386778E-03 -0.4637241E-04  0.7154233E-06  0.8200580E+05  0.3896988E+04  0.1164153E-09 -0.2139950E-09
  0.9600000E+00  0.2383416E+05  0.1394422E+04  0.4827976E-04  0.7009506E-06 -0.5152225E-03  0.1333637E-02 -0.2601743E-04  0.1385808E-05  0.8277634E+05  0.4746988E+04  0.3026798E-08 -0.2715387E-09
  0.9899999E+00  0.2408632E+05  0.1688300E+04 -0.1239777E-04 -0.7818639E-06 -0.5328655E-03  0.7539676E-03  0.3242493E-04  0.9164772E-06  0.8354059E+05  0.5733578E+04  0.3623427E-08  0.5366382E-09
  0.1020000E+01  0.2433571E+05  0.2027602E+04  0.4720688E-04 -0.1550317E-05  0.7171631E-03  0.1836578E-02 -0.3835559E-04 -0.4409663E-05  0.8428821E+05  0.6868821E+04  0.3827154E-08 -0.1669832E-09
  0.1050000E+01  0.2457922E+05  0.2416050E+04 -0.1800060E-04 -0.8918345E-06 -0.5149841E-02 -0.3139445E-02  0.9334087E-04  0.7302873E-05  0.8500866E+05  0.8163947E+04 -0.1542503E-08  0.2826710E-09
  0.1080000E+01  0.2481303E+05  0.2857036E+04 -0.4684925E-04  0.2381802E-05 -0.1325607E-02  0.1460753E-02  0.1074970E-03  0.2092123E-05  0.8569025E+05  0.9628958E+04  0.4059984E-08 -0.1689477E-09
  0.1110000E+01  0.2503329E+05  0.3353544E+04  0.2789497E-04  0.7112325E-05 -0.3252268E-02 -0.2578929E-02  0.5209446E-04  0.4011020E-06  0.8632056E+05  0.1127224E+05 -0.1324224E-08 -0.7834023E-09
  0.1140000E+01  0.2523635E+05  0.3907931E+04  0.4684925E-04  0.6760955E-05 -0.6053686E-02 -0.3512639E-02 -0.8642673E-06  0.1080818E-04  0.8688633E+05  0.1309996E+05  0.4656613E-08 -0.2612796E-09
  0.1170000E+01  0.2541789E+05  0.4521835E+04 -0.2646446E-04  0.1638830E-05 -0.3968000E-02 -0.4077373E-02 -0.3266335E-04  0.3481641E-04  0.8737408E+05  0.1511571E+05 -0.3783498E-09 -0.2936940E-09
  0.1200000E+01  0.2557369E+05  0.5196051E+04 -0.1502037E-04 -0.7063150E-05 -0.2253056E-03  0.4043340E-03  0.1227260E-03  0.2693385E-04  0.8777110E+05  0.1732023E+05  0.4511094E-09 -0.8294591E-10
  0.1230000E+01  0.2570000E+05  0.5930418E+04  0.5006790E-05  0.1154691E-05  0.2918482E-02  0.3942225E-02  0.1569390E-03  0.1748532E-04  0.8806523E+05  0.1971088E+05 -0.6184564E-08 -0.3235218E-08
  0.1260000E+01  0.2579363E+05  0.6723736E+04  0.2574921E-04 -0.9312630E-05 -0.7339001E-02 -0.1111207E-01  0.5215406E-05  0.3980398E-05  0.8824543E+05  0.2228162E+05 -0.4365575E-09  0.1347653E-08
  0.1290000E+01  0.2585111E+05  0.7573733E+04  0.2741814E-05  0.1730025E-05 -0.8339167E-02 -0.1513218E-01 -0.8320808E-04 -0.5901307E-05  0.8830234E+05  0.2502283E+05  0.4467438E-08 -0.6523260E-09
  0.1320000E+01  0.2586949E+05  0.8476997E+04 -0.1394749E-04 -0.5114078E-05  0.1155615E-02 -0.2332728E-02  0.1082122E-03  0.1298189E-04  0.8822749E+05  0.2792132E+05 -0.9051291E-08  0.4706089E-09
  0.1350000E+01  0.2584662E+05  0.9429127E+04 -0.2694130E-04  0.9334087E-05 -0.2033234E-02 -0.3397447E-02 -0.6499887E-04 -0.1616366E-04  0.8801504E+05  0.3096057E+05  0.1935405E-08  0.2327943E-08
  0.1380000E+01  0.2578090E+05  0.1042472E+05  0.4065037E-04 -0.4811883E-05  0.6973743E-03 -0.4269579E-02  0.3635883E-05 -0.5233437E-04  0.8766105E+05  0.3412118E+05  0.9895302E-09  0.7028575E-10
  0.1410000E+01  0.2567190E+05  0.1145761E+05 -0.3755093E-04  0.3571808E-05 -0.5761385E-02 -0.1146626E-01  0.2137125E-03 -0.2944641E-04  0.8716482E+05  0.3738082E+05 -0.6883056E-08  0.2769957E-09
  0.1440000E+01  0.2551932E+05  0.1252078E+05  0.2145767E-04 -0.1609325E-04 -0.2298355E-03 -0.8889312E-02 -0.4079938E-04 -0.2220869E-05  0.8652711E+05  0.4071579E+05 -0.6111804E-08 -0.2263114E-08
  0.1470000E+01  0.2532360E+05  0.1360688E+05 -0.8344650E-06  0.2562851E-04 -0.6766319E-03 -0.2881783E-02 -0.1410842E-03  0.1185045E-04  0.8575120E+05  0.4410042E+05  0.2066372E-08  0.2320958E-08
  0.1500000E+01  0.2508596E+05  0.1470814E+05  0.1549721E-04 -0.4470348E-05 -0.5002260E-02 -0.1327068E-01  0.8046627E-06 -0.3446639E-04  0.8484291E+05  0.4750882E+05  0.1193257E-08 -0.1309672E-08
  0.1530000E+01  0.2480842E+05  0.1581673E+05 -0.2110004E-04  0.1267612E-04  0.2339125E-02  0.3661484E-02 -0.2384186E-06  0.5813688E-05  0.8380952E+05  0.5091465E+05  0.3055902E-08 -0.3573441E-08
  0.1560000E+01  0.2449348E+05  0.1692489E+05  0.3576279E-05  0.1078606E-04 -0.7841587E-03 -0.2187524E-02 -0.1347065E-04  0.1799226E-04  0.8266137E+05  0.5429280E+05  0.1615263E-08  0.3961322E-08
  0.1590000E+01  0.2414431E+05  0.1802524E+05 -0.7033348E-05  0.7392168E-05 -0.4856825E-02 -0.1322326E-01  0.1114607E-04  0.8553117E-05  0.8140850E+05  0.5761893E+05  0.7144990E-08  0.4951435E-08
  0.1620000E+01  0.2376398E+05  0.1911067E+05 -0.4434586E-04 -0.4084468E-04  0.2242565E-02  0.3448334E-02 -0.7140636E-04  0.2276391E-04  0.8006324E+05  0.6087077E+05 -0.4249159E-08  0.6129267E-09
  0.1650000E+01  0.2335609E+05  0.2017478E+05  0.1525879E-04  0.2360344E-05 -0.1315117E-02  0.5165219E-03  0.6443262E-04 -0.3884732E-05  0.7863776E+05  0.6402785E+05  0.1266017E-08 -0.4994217E-08
  0.1680000E+01  0.2292423E+05  0.2121166E+05  0.3302097E-04 -0.1001358E-06 -0.1004219E-02 -0.4414787E-02 -0.9971857E-04  0.8739352E-04  0.7714524E+05  0.6707252E+05 -0.1091394E-08  0.2444722E-08
  0.1710000E+01  0.2247222E+05  0.2221632E+05 -0.1060963E-04  0.2904832E-04  0.1025200E-03 -0.2729320E-02  0.5090237E-04 -0.6105244E-04  0.7559802E+05  0.6998941E+05  0.4365575E-08 -0.3782334E-08
  0.1740000E+01  0.2200388E+05  0.2318442E+05 -0.4291534E-05 -0.7363558E-05 -0.1272202E-02 -0.1829066E-02 -0.1639128E-04 -0.1958603E-03  0.7400915E+05  0.7276598E+05 -0.3492460E-09  0.1215376E-08
  0.1770000E+01  0.2152291E+05  0.2411246E+05  0.3612041E-04  0.2743006E-04 -0.8523464E-03 -0.6483200E-02 -0.3427267E-04 -0.2687618E-04  0.7239080E+05  0.7539209E+05 -0.4103640E-08 -0.7211929E-09
  0.1800000E+01  0.2103275E+05  0.2499766E+05  0.6198883E-05 -0.2210140E-04  0.1266241E-02 -0.6070590E-02  0.7089972E-04  0.2663434E-04  0.7075423E+05  0.7786041E+05  0.5704351E-08 -0.6548362E-09
  0.1830000E+01  0.2053654E+05  0.2583777E+05  0.1120567E-04 -0.1777947E-04  0.6129742E-03 -0.4206862E-02  0.7537007E-04  0.6983623E-04  0.6910995E+05  0.8016591E+05  0.4481990E-08 -0.7989001E-10
  0.1860000E+01  0.2003726E+05  0.2663149E+05 -0.1311302E-05 -0.1840353E-04 -0.6978512E-03  0.4323721E-03 -0.2944469E-04  0.3641903E-04  0.6746734E+05  0.8230566E+05  0.5631591E-08  0.4465983E-08
  0.1890000E+01  0.1953764E+05  0.2737794E+05 -0.1192093E-06  0.1667261E-04  0.5249977E-03 -0.5016653E-02 -0.2446771E-04  0.6097331E-04  0.6583528E+05  0.8427826E+05 -0.4118192E-08  0.1182634E-08
  0.1920000E+01  0.1904007E+05  0.2807681E+05 -0.2235174E-04  0.2872467E-04  0.3623962E-04 -0.4021911E-02 -0.1251698E-05  0.1776695E-04  0.6422123E+05  0.8608500E+05 -0.4933099E-08 -0.4582107E-08
  0.1950000E+01  0.1854678E+05  0.2872821E+05  0.2372265E-04  0.4649162E-05  0.2076626E-03 -0.1417530E-02  0.6324053E-04 -0.1154155E-03  0.6263186E+05  0.8772780E+05 -0.6548362E-09 -0.2951128E-08
  0.1980000E+01  0.1805978E+05  0.2933276E+05 -0.1084805E-04 -0.1286387E-04  0.1215935E-02 -0.4851451E-02  0.4649162E-05  0.5827099E-04  0.6107294E+05  0.8920988E+05 -0.1004082E-08  0.1383014E-08
  0.2010000E+01  0.1758049E+05  0.2989127E+05  0.5543232E-05  0.3390491E-04 -0.8869171E-04 -0.3189697E-02 -0.4529953E-04  0.1450843E-03  0.5954905E+05  0.9053536E+05  0.2633897E-08 -0.5849870E-09
  0.2040000E+01  0.1711033E+05  0.3040477E+05 -0.2801418E-05  0.9362698E-05  0.1451969E-03 -0.5494566E-02  0.6128848E-04  0.5018771E-04  0.5806405E+05  0.9170973E+05 -0.1891749E-08  0.1573353E-08
  0.2070000E+01  0.1665037E+05  0.3087466E+05  0.1209974E-04  0.1616299E-04 -0.3607273E-03 -0.9742213E-03  0.3796816E-04  0.9077803E-04  0.5662131E+05  0.9273852E+05  0.5675247E-09 -0.1054286E-08
  0.2100000E+01  0.1620152E+05  0.3130237E+05 -0.1424551E-04 -0.3730059E-04  0.8304119E-03 -0.5114436E-02 -0.7347763E-04 -0.2972781E-05  0.5522288E+05  0.9362752E+05 -0.1600711E-09  0.7945345E-09
  0.2130000E+01  0.1576448E+05  0.3168954E+05  0.1025200E-04  0.1447320E-04 -0.8742809E-03 -0.4677637E-02 -0.5379319E-05 -0.9198100E-04  0.5387071E+05  0.9438339E+05  0.1688022E-08 -0.1487788E-08
  0.2160000E+01  0.1533981E+05  0.3203779E+05 -0.1120567E-04  0.3926754E-04 -0.3781319E-03 -0.4472637E-02 -0.2367795E-04  0.2021313E-04  0.5256598E+05  0.9501244E+05  0.8149073E-09 -0.4620524E-08
  0.2190000E+01  0.1492791E+05  0.3234886E+05  0.1412630E-04  0.7832051E-05 -0.4982948E-04 -0.2703102E-02 -0.3266335E-04  0.7486135E-04  0.5130946E+05  0.9552133E+05 -0.2270099E-08  0.0000000E+00
  0.2220000E+01  0.1452915E+05  0.3262444E+05 -0.1919270E-04 -0.2514124E-04 -0.4935265E-03 -0.2731133E-02 -0.2111495E-04 -0.6940305E-04  0.5010155E+05  0.9591636E+05  0.1600711E-09 -0.6461051E-09
  0.2250000E+01  0.1414361E+05  0.3286623E+05  0.3755093E-05  0.2588332E-04 -0.3644228E-03 -0.1705885E-02 -0.8404255E-05 -0.9562075E-04  0.4894209E+05  0.9620383E+05  0.4263711E-08  0.9167707E-09
  0.2280000E+01  0.1377129E+05  0.3307592E+05  0.1031160E-04 -0.2255916E-04  0.4737377E-03 -0.2217865E-02  0.1960993E-04 -0.8011222E-04  0.4783099E+05  0.9639030E+05 -0.1193257E-08 -0.2156594E-08
  0.2310000E+01  0.1341216E+05  0.3325514E+05 -0.2151728E-04  0.9486615E-04 -0.5841255E-05 -0.1708968E-02 -0.5809963E-04  0.3593623E-04  0.4676731E+05  0.9648152E+05 -0.4220055E-09  0.1848821E-08
  0.2340000E+01  0.1306610E+05  0.3340532E+05  0.7092953E-05  0.1394749E-05 -0.1100063E-02 -0.8201122E-04 -0.7842481E-04  0.8215070E-04  0.4575050E+05  0.9648360E+05 -0.1717126E-08 -0.6367627E-08
  0.2370000E+01  0.1273299E+05  0.3352823E+05  0.1984835E-04  0.6639361E-05 -0.8873940E-03  0.9193396E-03  0.6169081E-05  0.1031220E-04  0.4477935E+05  0.9640151E+05 -0.1746230E-09 -0.6207846E-09
  0.2400000E+01  0.1241260E+05  0.3362534E+05 -0.2861023E-05  0.4291534E-05  0.2889633E-03 -0.2321434E-02  0.2422929E-04 -0.1777411E-03  0.4385295E+05  0.9624101E+05 -0.5966285E-09  0.1606531E-08
  0.2430000E+01  0.1210467E+05  0.3369784E+05 -0.2485514E-04 -0.1709104E-04  0.1010418E-02 -0.2086265E-02  0.5826354E-05  0.8147209E-04  0.4297007E+05  0.9600701E+05  0.1775334E-08  0.7779453E-09
  0.2460000E+01  0.1180893E+05  0.3374712E+05  0.1066923E-04  0.3299117E-04 -0.1668930E-05  0.2832842E-03  0.5602837E-05  0.1972139E-04  0.4212938E+05  0.9570380E+05  0.2051820E-08  0.3472378E-08
  0.2490000E+01  0.1152513E+05  0.3377451E+05  0.2044439E-04 -0.1335740E-04  0.3296137E-03 -0.2064164E-02 -0.5081296E-05  0.1288247E-03  0.4132948E+05  0.9533631E+05  0.1447916E-08 -0.2681336E-08
  0.2520000E+01  0.1125289E+05  0.3378095E+05  0.2074242E-04 -0.5857944E-05  0.4519224E-03 -0.2470551E-02 -0.4188716E-04  0.6271005E-04  0.4056913E+05  0.9490810E+05  0.1236913E-09  0.7334165E-09
  0.2550000E+01  0.1099189E+05  0.3376768E+05 -0.7152557E-06 -0.3723800E-04 -0.6103516E-03 -0.1237214E-02 -0.2983212E-04  0.3256425E-04  0.3984675E+05  0.9442282E+05 -0.1200533E-08 -0.1335866E-08
  0.2580000E+01  0.1074177E+05  0.3373555E+05 -0.1192093E-06  0.1168728E-04 -0.3325939E-04 -0.8900785E-03 -0.5699694E-04 -0.1061082E-04  0.3916084E+05  0.9388434E+05 -0.1658918E-08 -0.3228779E-08
  0.2610000E+01  0.1050218E+05  0.3368550E+05  0.7748604E-05 -0.1617908E-04  0.2691746E-03  0.4405689E-03  0.3771484E-04 -0.9178519E-04  0.3851005E+05  0.9329552E+05 -0.1156877E-08 -0.4861504E-08
  0.2640000E+01  0.1027277E+05  0.3361833E+05 -0.5066395E-05 -0.1353264E-04 -0.1910925E-03 -0.6520844E-03  0.3047287E-05  0.1494885E-04  0.3789280E+05  0.9265877E+05  0.3281457E-08 -0.4341127E-08
  0.2670000E+01  0.1005319E+05  0.3353470E+05 -0.4410744E-05 -0.5856514E-04 -0.1159906E-03 -0.8937549E-03  0.2005696E-04 -0.3433540E-04  0.3730784E+05  0.9197712E+05  0.2532033E-08 -0.2136949E-08
  0.2700000E+01  0.9843122E+04  0.3343520E+05  0.6139278E-05  0.2526641E-04 -0.9961128E-03  0.7615328E-03 -0.3404915E-05 -0.1392871E-03  0.3675342E+05  0.9125161E+05  0.5253241E-08  0.3732566E-08
  0.2730000E+01  0.9642152E+04  0.3332027E+05  0.5424023E-05  0.2668619E-04 -0.7057190E-04  0.8383369E-03  0.3837049E-05 -0.5125702E-05  0.3622825E+05  0.9048427E+05 -0.1149601E-08 -0.3098685E-08
  0.2760000E+01  0.9449958E+04  0.3319004E+05 -0.4619360E-05 -0.5001068E-04  0.2357960E-03 -0.2967081E-02 -0.1959503E-04  0.2344251E-05  0.3573059E+05  0.8967589E+05  0.2059096E-08  0.3494206E-08
  0.2790000E+01  0.9266200E+04  0.3304458E+05 -0.1639128E-05  0.3691793E-04  0.6681681E-04 -0.3685141E-03 -0.1643598E-04 -0.6402433E-04  0.3525909E+05  0.8882620E+05  0.2255547E-08 -0.7307972E-09
  0.2820000E+01  0.9090497E+04  0.3288365E+05 -0.7063150E-05 -0.3546596E-04  0.9822845E-04  0.1499319E-02  0.1084059E-04 -0.2378404E-04  0.3481198E+05  0.8793435E+05  0.2808520E-08  0.7673807E-08
  0.2850000E+01  0.8922521E+04  0.3270682E+05 -0.5364418E-06  0.7984042E-05 -0.2433658E-03  0.1564193E-02  0.3575534E-04  0.4837140E-04  0.3438752E+05  0.8699886E+05  0.6548362E-09  0.1244189E-09
  0.2880000E+01  0.8761890E+04  0.3251286E+05 -0.5513430E-05  0.4634857E-05  0.7008314E-03  0.1590958E-02  0.6496906E-05 -0.3235817E-04  0.3398384E+05  0.8601559E+05 -0.3637979E-09  0.7250347E-08
  0.2910000E+01  0.8608188E+04  0.3229997E+05  0.2533197E-05  0.4006684E-04 -0.1765609E-02  0.2277739E-02 -0.1969188E-04  0.1136094E-03  0.3359857E+05  0.8497799E+05 -0.2066372E-08  0.6817718E-08
  0.2940000E+01  0.8461032E+04  0.3206511E+05  0.3725290E-05 -0.5257130E-05 -0.6047487E-03  0.6056214E-03  0.3889203E-05 -0.2803803E-05  0.3322908E+05  0.8387583E+05 -0.4292815E-09  0.4791655E-08
  0.2970000E+01  0.8319919E+04  0.3180356E+05  0.4261732E-05 -0.1398504E-04 -0.1339078E-02  0.1458693E-02 -0.2405792E-04 -0.9138957E-04  0.3287161E+05  0.8269238E+05  0.2237357E-08  0.4019384E-08
  0.3000000E+01  0.8184304E+04  0.3150705E+05 -0.9119511E-05  0.9119511E-05 -0.9358525E-03  0.3839493E-02 -0.3034621E-04 -0.6629527E-04  0.3252121E+05  0.8139936E+05 -0.2248271E-08 -0.4802132E-08
  0.3030000E+01  0.8053237E+04  0.3116158E+05  0.1236796E-04  0.2257526E-04  0.1916885E-03  0.2440295E-02  0.3375113E-05  0.1038462E-05  0.3216944E+05  0.7994810E+05  0.7457857E-09 -0.1318360E-07
  0.3060000E+01  0.7925230E+04  0.3074013E+05  0.6943941E-05  0.5325794E-04 -0.2431095E-02 -0.3142948E-02 -0.4029274E-04  0.2097487E-05  0.3180138E+05  0.7824680E+05  0.1036824E-08  0.1603039E-08
  0.3090000E+01  0.7797016E+04  0.3018621E+05  0.6198883E-05 -0.3683567E-06 -0.6677508E-03  0.2347906E-02  0.1192093E-04 -0.1063630E-04  0.3138611E+05  0.7610298E+05  0.2270099E-08 -0.1438893E-08
  0.3120000E+01  0.7660293E+04  0.2935770E+05  0.2652407E-05 -0.4314422E-04 -0.3656626E-02  0.7388076E-02  0.3395230E-04  0.5067587E-05  0.3084521E+05  0.7303742E+05 -0.2655725E-09  0.2224697E-08
  0.3150000E+01  0.7481127E+04  0.2777251E+05 -0.3814697E-05  0.1295507E-04 -0.3046513E-02  0.9387732E-05  0.1447648E-04  0.5435497E-04  0.2989138E+05  0.6744184E+05  0.3165042E-09 -0.1045119E-07
  0.3180000E+01  0.6901923E+04  0.2212697E+05 -0.3844500E-05  0.5781054E-04 -0.8004665E-02  0.1222702E-01  0.2609938E-04 -0.3430724E-04  0.2611146E+05  0.4874663E+05 -0.2022716E-08 -0.2383167E-08
  0.3210000E+01  0.6635421E+04  0.4797662E+05  0.1841225E-05  0.1454115E-04  0.8424934E-02 -0.1495611E+00 -0.6617047E-05 -0.1938182E-03  0.3425980E+05  0.1417138E+06  0.1657554E-09  0.1588196E-08
  0.3240000E+01  0.7408927E+04  0.3535716E+05 -0.1101196E-04  0.1158714E-04  0.2134591E-02 -0.1240597E-01 -0.2828613E-04  0.4113436E-04  0.3292257E+05  0.9335964E+05  0.2983143E-09  0.8722418E-08
  0.3270000E+01  0.7332337E+04  0.3319512E+05  0.6750226E-05  0.2982080E-04  0.4136682E-02 -0.7346442E-02  0.1635402E-05  0.7620871E-04  0.3213206E+05  0.8545108E+05  0.1233275E-08  0.1722568E-07
  0.3300000E+01  0.7246837E+04  0.3218630E+05 -0.8851290E-05 -0.6530285E-04  0.3288090E-03 -0.1290636E-01  0.3098324E-04 -0.6461441E-04  0.3170396E+05  0.8172665E+05 -0.2983143E-09 -0.1863227E-07
  0.3330000E+01  0.7166428E+04  0.3153353E+05  0.1089275E-04  0.4267395E-04 -0.3623068E-03 -0.2236512E-02  0.2086535E-04 -0.1368543E-03  0.3141439E+05  0.7928397E+05 -0.9240466E-09  0.5814945E-09
  0.3360000E+01  0.7091365E+04  0.3103550E+05  0.1114607E-04 -0.8471488E-04 -0.1376867E-03 -0.9005412E-02 -0.2321228E-04  0.1787424E-04  0.3119507E+05  0.7740055E+05  0.4885806E-08  0.3764872E-08
  0.3390000E+01  0.7021220E+04  0.3061736E+05 -0.4172325E-06  0.2687395E-04  0.7537007E-03 -0.8648966E-02  0.1503527E-04 -0.3435016E-05  0.3101861E+05  0.7580960E+05 -0.1458830E-08  0.1775916E-08
  0.3420000E+01  0.6955504E+04  0.3024521E+05 -0.8851290E-05  0.8031607E-04 -0.1267284E-02 -0.9250617E-02 -0.3335997E-04  0.1026374E-03  0.3087163E+05  0.7438968E+05 -0.9131327E-09  0.1094886E-08
  0.3450000E+01  0.6893906E+04  0.2990113E+05 -0.3114343E-05 -0.3105104E-04  0.1090437E-02 -0.3580123E-02 -0.1228228E-04  0.1747906E-05  0.3074699E+05  0.7307788E+05  0.2373781E-08  0.1435838E-07
  0.3480000E+01  0.6836145E+04  0.2957523E+05  0.9670854E-05  0.4832983E-04 -0.7377267E-03 -0.6065498E-02 -0.2976879E-04  0.2317965E-04  0.3064003E+05  0.7183854E+05 -0.6239134E-09 -0.1012813E-09
  0.3510000E+01  0.6782010E+04  0.2926125E+05 -0.9506941E-05  0.5230308E-04  0.3024042E-03 -0.2692144E-02 -0.3755093E-05 -0.1258935E-03  0.3054798E+05  0.7064922E+05 -0.1844455E-08 -0.7304043E-08
  0.3540000E+01  0.6731303E+04  0.2895490E+05 -0.5096197E-05 -0.6752014E-05  0.4344285E-03 -0.1505699E-02 -0.2188236E-04 -0.1252815E-03  0.3046885E+05  0.6949546E+05 -0.1715307E-08  0.3296882E-08
  0.3570000E+01  0.6683853E+04  0.2865351E+05 -0.9238720E-05  0.7107139E-04 -0.8232892E-03 -0.3281626E-02  0.1474842E-04  0.7819981E-05  0.3040114E+05  0.6836750E+05  0.2928573E-09  0.1901383E-07
  0.3600000E+01  0.6639462E+04  0.2835511E+05 -0.2495944E-05  0.1287460E-04  0.5060434E-04 -0.2077532E-02 -0.9097159E-05  0.6571412E-04  0.3034345E+05  0.6725855E+05 -0.6075425E-09  0.2462184E-08
  0.3630000E+01  0.6598040E+04  0.2805782E+05 -0.8910894E-05  0.2444923E-04 -0.5723834E-03  0.5223047E-03 -0.3065914E-05 -0.1925647E-04  0.3029487E+05  0.6616296E+05  0.2381057E-08  0.1109292E-08
  0.3660000E+01  0.6559390E+04  0.2776007E+05  0.1318753E-05  0.3075957E-04  0.4130006E-03 -0.3674569E-02 -0.8797273E-05 -0.4243076E-04  0.3025431E+05  0.6507514E+05 -0.3168680E-08 -0.7616181E-08
  0.3690000E+01  0.6523420E+04  0.2746020E+05  0.3516674E-05 -0.4398823E-06 -0.1132697E-02 -0.3401170E-02 -0.3621541E-04  0.1962975E-04  0.3022080E+05  0.6399006E+05 -0.1644366E-08 -0.9719079E-08
  0.3720000E+01  0.6489943E+04  0.2715660E+05 -0.1049787E-04 -0.4944563E-04 -0.4055202E-03 -0.3756094E-03  0.2077781E-04 -0.2383590E-04  0.3019317E+05  0.6290209E+05 -0.2062734E-08 -0.6874906E-08
  0.3750000E+01  0.6458872E+04  0.2684683E+05 -0.1192093E-06  0.2235174E-06 -0.7599294E-03  0.2201647E-02  0.1961924E-04  0.5308539E-05  0.3017030E+05  0.6180369E+05  0.7639755E-10  0.2248271E-07
  0.3780000E+01  0.6430094E+04  0.2652751E+05 -0.4403293E-05  0.3537297E-04 -0.1093015E-02 -0.1042263E-02 -0.2089329E-04 -0.3773868E-05  0.3015087E+05  0.6068368E+05 -0.1298758E-08 -0.1705193E-08
  0.3810000E+01  0.6403493E+04  0.2619344E+05  0.7301569E-06  0.1249015E-04 -0.2279431E-03  0.4541874E-05  0.1203269E-05  0.8476272E-04  0.3013328E+05  0.5952469E+05 -0.2399247E-08  0.6320479E-08
  0.3840000E+01  0.6379051E+04  0.2583674E+05  0.7979572E-05  0.7942200E-04 -0.1815110E-02 -0.7960511E-03 -0.3440864E-04  0.5149842E-06  0.3011553E+05  0.5830068E+05 -0.1353328E-08 -0.9499491E-08
  0.3870000E+01  0.6356626E+04  0.2544322E+05 -0.1661479E-05  0.3114045E-04 -0.1850560E-02 -0.1528419E-02 -0.2458692E-05 -0.5380377E-04  0.3009425E+05  0.5696736E+05  0.1609806E-08 -0.5462643E-08
  0.3900000E+01  0.6335935E+04  0.2498639E+05 -0.3859401E-05 -0.6904006E-04 -0.3801882E-03  0.1874077E-02  0.9423122E-05 -0.6747097E-04  0.3006266E+05  0.5544251E+05 -0.4867616E-08  0.9818176E-08
  0.3930000E+01  0.6316550E+04  0.2440881E+05  0.4589558E-05  0.4380405E-04 -0.2471745E-02  0.6743013E-02 -0.2264977E-05 -0.1352772E-04  0.3000660E+05  0.5354860E+05 -0.7230483E-09  0.4918256E-08
  0.3960000E+01  0.6295836E+04  0.2355108E+05  0.6034970E-06  0.4602671E-04 -0.3892079E-02  0.7739568E-02 -0.1291186E-04  0.1180172E-06  0.2988112E+05  0.5079700E+05 -0.8330971E-09 -0.9364157E-08
  0.3990000E+01  0.6254583E+04  0.2176417E+05  0.4053116E-05 -0.2948999E-04 -0.3224924E-02  0.1564920E-01  0.1193956E-04  0.1000044E-03  0.2947778E+05  0.4523119E+05 -0.2006345E-08 -0.7170674E-08
  0.4020000E+01  0.5282894E+04  0.1054158E+05 -0.2354383E-05 -0.8625985E-05 -0.2057517E-01  0.1083342E+00  0.1891702E-04 -0.2246350E-05  0.2400872E+05  0.1366298E+05 -0.7694325E-09 -0.3802416E-08
  0.4050000E+01  0.5981639E+04  0.3100725E+05  0.5908310E-05 -0.6831587E-04  0.1408401E-01  0.1133126E-01 -0.3034063E-04  0.1279414E-03  0.3100629E+05  0.7488138E+05  0.3629793E-08  0.5304173E-09
  0.4080000E+01  0.6178044E+04  0.2716165E+05 -0.3071968E-05 -0.8365631E-04  0.3320719E-02 -0.1405086E-01  0.2231065E-04  0.3520131E-04  0.3087038E+05  0.6204308E+05 -0.7759127E-09  0.6530899E-09
  0.4110001E+01  0.6201211E+04  0.2594431E+05  0.5392358E-06  0.4703522E-04  0.2605196E-02 -0.3766738E-02  0.5459553E-04 -0.1812816E-04  0.3079380E+05  0.5807038E+05 -0.2645720E-08 -0.1010762E-07
  0.4140000E+01  0.6205117E+04  0.2524796E+05  0.1192745E-04  0.9648443E-04  0.1205448E-02 -0.4830144E-02  0.9449665E-05  0.1233816E-05  0.3077428E+05  0.5581065E+05 -0.2703473E-09 -0.1168752E-07
  0.4170000E+01  0.6204421E+04  0.2474223E+05  0.5172566E-05  0.5219579E-05  0.1081806E-02 -0.7618099E-02 -0.4400034E-05 -0.6580398E-04  0.3078230E+05  0.5417365E+05 -0.2779188E-08  0.3094756E-08
  0.4200000E+01  0.6202503E+04  0.2432802E+05 -0.2374873E-06  0.6633998E-04  0.6636530E-03 -0.6959439E-04 -0.6261747E-05  0.4881621E-04  0.3080553E+05  0.5283842E+05  0.2459728E-08 -0.1521839E-07
  0.4230000E+01  0.6200414E+04  0.2396454E+05  0.4887581E-05 -0.2798617E-04  0.6939974E-03 -0.3901424E-02 -0.1577241E-04 -0.1783803E-04  0.3083758E+05  0.5167175E+05 -0.3995865E-08 -0.5139810E-08
  0.4260000E+01  0.6198727E+04  0.2363205E+05  0.3821217E-05  0.5941630E-04  0.1089929E-02 -0.4257660E-02 -0.2540648E-04 -0.2659768E-04  0.3087603E+05  0.5060931E+05 -0.3676064E-08  0.2386660E-08
  0.4290000E+01  0.6197639E+04  0.2331954E+05  0.2862886E-05 -0.2429187E-04 -0.3648959E-03 -0.4280484E-02  0.2108316E-04  0.2767995E-04  0.3091920E+05  0.4961430E+05  0.1460876E-08 -0.1332832E-07
  0.4320000E+01  0.6197324E+04  0.2302055E+05 -0.3064517E-05 -0.3347397E-05 -0.1104656E-02 -0.2757225E-02 -0.2065522E-04  0.2156496E-04  0.3096614E+05  0.4866663E+05 -0.8758434E-09 -0.6286427E-09
  0.4350000E+01  0.6197912E+04  0.2273063E+05 -0.3128720E-05 -0.1633465E-04  0.6195898E-03 -0.2120912E-02  0.2173184E-04 -0.5872697E-04  0.3101667E+05  0.4775074E+05  0.5720793E-09  0.2848538E-08
  0.4380000E+01  0.6199438E+04  0.2244733E+05 -0.2963236E-05 -0.3811598E-04 -0.5078488E-03 -0.2535496E-02 -0.3456307E-04 -0.4438162E-05  0.3107062E+05  0.4686030E+05 -0.1259025E-08 -0.2995657E-08
  0.4410000E+01  0.6201836E+04  0.2216871E+05 -0.6477814E-05  0.2234280E-04 -0.1616376E-02 -0.3501249E-02  0.3101316E-04  0.7005126E-04  0.3112724E+05  0.4598919E+05  0.5792344E-09 -0.1052453E-07
  0.4440000E+01  0.6205137E+04  0.2189267E+05  0.1301989E-05  0.3625632E-04 -0.7202253E-03 -0.1513238E-02  0.1418486E-04 -0.7343888E-05  0.3118621E+05  0.4513167E+05  0.5901484E-09 -0.2261368E-08
  0.4470000E+01  0.6209233E+04  0.2161794E+05  0.6459653E-05 -0.5248726E-04  0.2980065E-03 -0.1662008E-02 -0.1552352E-04  0.4729182E-05  0.3124678E+05  0.4428592E+05 -0.2561819E-08  0.6146948E-08
  0.4500000E+01  0.6213990E+04  0.2134201E+05 -0.1038704E-04 -0.9655953E-05 -0.1700776E-02 -0.2184391E-02  0.2223416E-04  0.6169081E-05  0.3130807E+05  0.4344364E+05  0.2750085E-08  0.5435141E-08
  0.4530000E+01  0.6219394E+04  0.2106286E+05  0.9758398E-05 -0.5751193E-04 -0.4651621E-03 -0.1256622E-02 -0.5890010E-04  0.1012534E-04  0.3136939E+05  0.4259846E+05 -0.3822606E-08  0.1351364E-08