VARIABLES="w (rad/s)"
"abs(F   1   1)" "angle(F   1   1)"
"abs(F   1   2)" "angle(F   1   2)"
"abs(F   1   3)" "angle(F   1   3)"
"abs(F   1   4)" "angle(F   1   4)"
"abs(F   1   5)" "angle(F   1   5)"
"abs(F   1   6)" "angle(F   1   6)"
Zone t="Diffraction force - beta =   0.000 deg",I=   525,F=POINT
  0.4000000E-01  0.1190362E+02 -0.1570794E+01  0.2275470E-07  0.4670081E+00  0.1720591E+00 -0.3027326E+01  0.1994919E-07  0.9061258E+00  0.3273850E+01  0.1570799E+01  0.5717734E-14  0.1576257E+01
  0.8000000E-01  0.2489171E+02 -0.1570787E+01  0.1406224E-06 -0.2830281E+01  0.6681418E+00 -0.3023878E+01  0.3577983E-07 -0.6689478E+00  0.6882695E+01  0.1570805E+01  0.2164939E-13 -0.1572719E+01
  0.1200000E+00  0.3816212E+02 -0.1570776E+01  0.9111658E-07 -0.2904284E+01  0.1398016E+01 -0.3014945E+01  0.1285425E-06  0.3050378E+01  0.1051626E+02  0.1570817E+01  0.3375078E-13  0.1570385E+01
  0.1600000E+00  0.5124560E+02 -0.1570759E+01  0.6801982E-06  0.6560295E+00  0.2431284E+01 -0.3012063E+01  0.2473123E-06  0.3242683E+00  0.1409084E+02  0.1570833E+01  0.1887430E-13  0.1563444E+01
  0.2000000E+00  0.6411470E+02 -0.1570739E+01  0.1659003E-05 -0.3076990E+01  0.3763932E+01 -0.3010761E+01  0.3058963E-06  0.1769048E+01  0.1765442E+02  0.1570853E+01  0.7993799E-14 -0.1563852E+01
  0.2400000E+00  0.7717144E+02 -0.1570713E+01  0.1953033E-05  0.3134440E+01  0.5340348E+01 -0.3008685E+01  0.1667141E-06  0.2478611E+01  0.2121786E+02  0.1570878E+01  0.3508463E-13  0.1561303E+01
  0.2800000E+00  0.9012577E+02 -0.1570682E+01  0.8117487E-06  0.2868653E-01  0.7154518E+01 -0.3006398E+01  0.2072340E-06  0.3049257E+00  0.2477157E+02  0.1570909E+01  0.2044288E-13 -0.1532771E+01
  0.3200000E+00  0.1030562E+03 -0.1570646E+01  0.4982690E-05 -0.5760062E-01  0.9254040E+01 -0.3004915E+01  0.1117515E-05 -0.2616292E+01  0.2835481E+02  0.1570944E+01  0.2224439E-13 -0.1630724E+01
  0.3600000E+00  0.1161557E+03 -0.1570605E+01  0.8636414E-06 -0.2880921E+01  0.1156874E+02 -0.3003008E+01  0.8448411E-06  0.9843454E-01  0.3193253E+02  0.1570984E+01  0.7327548E-13  0.1566251E+01
  0.4000000E+00  0.1293178E+03 -0.1570559E+01  0.5910950E-06  0.1771050E+01  0.1416127E+02 -0.3001597E+01  0.1134271E-05  0.1876018E+00  0.3551980E+02  0.1571030E+01  0.2931325E-13  0.1585947E+01
  0.4400000E+00  0.1423885E+03 -0.1570507E+01  0.4748328E-05 -0.2785505E-01  0.1699637E+02 -0.3000218E+01  0.7799620E-06  0.2587281E+01  0.3910652E+02  0.1571081E+01  0.4528839E-14  0.1373401E+01
  0.4800000E+00  0.1555204E+03 -0.1570449E+01  0.1500290E-05  0.2898345E+01  0.2004975E+02 -0.2998673E+01  0.1098601E-05  0.2817448E+01  0.4273032E+02  0.1571138E+01  0.1119125E-12  0.1564844E+01
  0.5200000E+00  0.1687632E+03 -0.1570384E+01  0.8008449E-05 -0.2944482E+01  0.2337004E+02 -0.2997372E+01  0.9202379E-06  0.3068899E+01  0.4636889E+02  0.1571201E+01  0.9683207E-13  0.1550157E+01
  0.5600000E+00  0.1821361E+03 -0.1570314E+01  0.5134556E-05 -0.2874704E+01  0.2693205E+02 -0.2996159E+01  0.6395759E-06 -0.1506157E+01  0.5001199E+02  0.1571271E+01  0.1377027E-12  0.1548220E+01
  0.6000000E+00  0.1955310E+03 -0.1570236E+01  0.3582372E-05  0.1864345E+01  0.3067991E+02 -0.2994678E+01  0.2302052E-05 -0.4453558E+00  0.5365258E+02  0.1571347E+01  0.9810251E-14  0.1661456E+01
  0.6400000E+00  0.2090050E+03 -0.1570151E+01  0.4498777E-05 -0.6167721E+00  0.3469055E+02 -0.2993326E+01  0.1239056E-05  0.1060621E+01  0.5732471E+02  0.1571431E+01  0.9858881E-13 -0.1566292E+01
  0.6800000E+00  0.2225502E+03 -0.1570058E+01  0.2733373E-05  0.1047382E+01  0.3894883E+02 -0.2992063E+01  0.4219233E-06 -0.1064227E+01  0.6102283E+02  0.1571522E+01  0.7905911E-13 -0.1553944E+01
  0.7200000E+00  0.2361293E+03 -0.1569958E+01  0.8146149E-05 -0.5680884E+00  0.4342638E+02 -0.2990849E+01  0.1189175E-05  0.5492944E+00  0.6473510E+02  0.1571620E+01  0.1066045E-12  0.1591627E+01
  0.7600000E+00  0.2497319E+03 -0.1569848E+01  0.1365582E-04  0.5722267E+00  0.4811627E+02 -0.2989565E+01  0.6524733E-05 -0.1506553E+00  0.6846745E+02  0.1571728E+01  0.1492146E-12 -0.1573773E+01
  0.8000000E+00  0.2635623E+03 -0.1569729E+01  0.1253391E-04  0.5606314E+00  0.5298048E+02 -0.2988081E+01  0.2028425E-05 -0.1518984E+01  0.7223244E+02  0.1571845E+01  0.1244409E-12 -0.1610062E+01
  0.8400000E+00  0.2775370E+03 -0.1569600E+01  0.1344374E-04 -0.3104175E+01  0.5810528E+02 -0.2986646E+01  0.3011535E-05 -0.2144572E+01  0.7602237E+02  0.1571971E+01  0.1510432E-12 -0.1597261E+01
  0.8800000E+00  0.2916362E+03 -0.1569462E+01  0.9582002E-05  0.4959491E+00  0.6347488E+02 -0.2985243E+01  0.3516884E-05  0.2445772E+01  0.7983578E+02  0.1572108E+01  0.7284281E-13 -0.1552506E+01
  0.9200000E+00  0.3058659E+03 -0.1569312E+01  0.6740010E-05 -0.1006748E+01  0.6899429E+02 -0.2983865E+01  0.3587819E-05  0.2919189E+01  0.8367357E+02  0.1572255E+01  0.4441114E-13  0.1560797E+01
  0.9600000E+00  0.3202096E+03 -0.1569150E+01  0.1221140E-04  0.3581280E+00  0.7482739E+02 -0.2982687E+01  0.2840883E-05 -0.2893027E+01  0.8754430E+02  0.1572414E+01  0.6597827E-13  0.1483183E+01
  0.1000000E+01  0.3345742E+03 -0.1568974E+01  0.1665430E-04  0.2700655E+01  0.8074370E+02 -0.2981169E+01  0.1548214E-05  0.2167519E+00  0.9141722E+02  0.1572587E+01  0.1387862E-12 -0.1628425E+01
  0.1040000E+01  0.3491573E+03 -0.1568784E+01  0.1026109E-04  0.2090325E+01  0.8684138E+02 -0.2979525E+01  0.1387260E-05  0.1049240E+00  0.9534892E+02  0.1572774E+01  0.2984332E-12 -0.1576749E+01
  0.1080000E+01  0.3638913E+03 -0.1568578E+01  0.3257955E-04  0.2509828E+00  0.9318367E+02 -0.2977846E+01  0.4031016E-05 -0.5161946E+00  0.9933092E+02  0.1572977E+01  0.3489988E-13  0.1313473E+01
  0.1120000E+01  0.3787338E+03 -0.1568357E+01  0.1800887E-04 -0.1438539E+01  0.9981217E+02 -0.2976098E+01  0.6828293E-05  0.3018190E+01  0.1033479E+03  0.1573194E+01  0.1321238E-12  0.1469790E+01
  0.1160000E+01  0.3937453E+03 -0.1568119E+01  0.1266578E-04 -0.2954320E+01  0.1065280E+03 -0.2974546E+01  0.5108840E-05 -0.5203764E+00  0.1074128E+03  0.1573427E+01  0.7317642E-13 -0.1668050E+01
  0.1200000E+01  0.4089967E+03 -0.1567863E+01  0.1656644E-04 -0.2182787E+00  0.1134458E+03 -0.2973024E+01  0.1277394E-04  0.2331098E+01  0.1115031E+03  0.1573678E+01  0.2327299E-12 -0.1555530E+01
  0.1240000E+01  0.4245020E+03 -0.1567587E+01  0.2130056E-05 -0.2917612E+01  0.1205959E+03 -0.2971514E+01  0.4689407E-05  0.2379393E+01  0.1156495E+03  0.1573950E+01  0.1459885E-12  0.1503824E+01
  0.1280000E+01  0.4401345E+03 -0.1567287E+01  0.3033280E-04 -0.3069931E+01  0.1278130E+03 -0.2969748E+01  0.3966527E-05  0.5279497E+00  0.1198041E+03  0.1574244E+01  0.1741940E-12 -0.1606495E+01
  0.1320000E+01  0.4560891E+03 -0.1566961E+01  0.4970659E-04 -0.5438384E+00  0.1351696E+03 -0.2967807E+01  0.9936439E-05  0.2858491E+01  0.1240397E+03  0.1574565E+01  0.2454990E-12 -0.1516502E+01
  0.1360000E+01  0.4722889E+03 -0.1566608E+01  0.1461807E-04  0.1568758E+01  0.1427179E+03 -0.2965733E+01  0.7973000E-05 -0.1963712E+01  0.1283279E+03  0.1574913E+01  0.2169775E-12 -0.1619937E+01
  0.1400000E+01  0.4886710E+03 -0.1566228E+01  0.5241087E-04  0.7441685E-01  0.1504919E+03 -0.2963523E+01  0.1336876E-04  0.2816397E+01  0.1326621E+03  0.1575287E+01  0.1185776E-12 -0.1420425E+01
  0.1440000E+01  0.5053307E+03 -0.1565819E+01  0.1539435E-04  0.7503983E+00  0.1585488E+03 -0.2961183E+01  0.9743048E-05 -0.2535962E+00  0.1370714E+03  0.1575689E+01  0.1000453E-12 -0.1677532E+01
  0.1480000E+01  0.5222527E+03 -0.1565380E+01  0.2247520E-04 -0.1998986E+00  0.1665420E+03 -0.2959327E+01  0.1201357E-04 -0.2860490E+01  0.1415341E+03  0.1576121E+01  0.1542467E-12  0.1709436E+01
  0.1520000E+01  0.5393728E+03 -0.1564906E+01  0.8033260E-05  0.1376998E+00  0.1747347E+03 -0.2957442E+01  0.1633719E-04  0.2981691E+01  0.1460461E+03  0.1576588E+01  0.5344709E-12  0.1494279E+01
  0.1560000E+01  0.5568087E+03 -0.1564392E+01  0.3196284E-04  0.3095889E+01  0.1831150E+03 -0.2955532E+01  0.4741094E-05 -0.1057984E+01  0.1506493E+03  0.1577092E+01  0.4712270E-12  0.1668965E+01
  0.1600000E+01  0.5743454E+03 -0.1563833E+01  0.2155030E-04 -0.1588084E+01  0.1915363E+03 -0.2953415E+01  0.1260362E-04 -0.2567777E+01  0.1552764E+03  0.1577641E+01  0.3561407E-12  0.1640682E+01
  0.1640000E+01  0.5923062E+03 -0.1563224E+01  0.5201080E-04 -0.2879015E+01  0.1999144E+03 -0.2950961E+01  0.9080883E-05 -0.2741828E+01  0.1600254E+03  0.1578238E+01  0.1243664E-11 -0.1552227E+01
  0.1680000E+01  0.6105668E+03 -0.1562559E+01  0.1037199E-04 -0.1678756E+01  0.2084400E+03 -0.2948338E+01  0.6983937E-05  0.2917682E+00  0.1648459E+03  0.1578890E+01  0.8202076E-13  0.1657535E+01
  0.1720000E+01  0.6293666E+03 -0.1561840E+01  0.7026318E-04  0.9941541E-01  0.2171607E+03 -0.2945536E+01  0.6651378E-05  0.1905807E+01  0.1697701E+03  0.1579598E+01  0.3313370E-12 -0.1495669E+01
  0.1760000E+01  0.6485145E+03 -0.1561064E+01  0.5052501E-04 -0.2275781E+00  0.2260517E+03 -0.2942460E+01  0.7623161E-05 -0.2125486E+01  0.1747580E+03  0.1580361E+01  0.9237210E-12  0.1576566E+01
  0.1800000E+01  0.6681559E+03 -0.1560230E+01  0.2634423E-04 -0.9111174E+00  0.2351452E+03 -0.2939263E+01  0.2323232E-04 -0.2729044E+01  0.1798465E+03  0.1581182E+01  0.3248742E-12 -0.1339079E+01
  0.1840000E+01  0.6882098E+03 -0.1559333E+01  0.1568836E-04 -0.1708482E+00  0.2439941E+03 -0.2936860E+01  0.2431697E-04  0.3250996E+00  0.1850236E+03  0.1582065E+01  0.2337243E-12 -0.1229817E+01
  0.1880000E+01  0.7086342E+03 -0.1558365E+01  0.3828525E-04 -0.7877375E+00  0.2529595E+03 -0.2934378E+01  0.1196288E-04 -0.2580792E+01  0.1902689E+03  0.1583017E+01  0.8102544E-12  0.1546678E+01
  0.1920000E+01  0.7295191E+03 -0.1557318E+01  0.3556424E-04  0.1327698E+01  0.2620939E+03 -0.2931906E+01  0.2888792E-04 -0.2097742E+00  0.1956275E+03  0.1584046E+01  0.1245478E-12 -0.1513716E+01
  0.1960000E+01  0.7507490E+03 -0.1556180E+01  0.3465430E-04  0.3070584E+01  0.2712478E+03 -0.2929301E+01  0.8883899E-05 -0.2759756E+01  0.2010572E+03  0.1585166E+01  0.7932184E-12 -0.1521509E+01
  0.2000000E+01  0.7724199E+03 -0.1554939E+01  0.4114213E-04  0.1257378E+01  0.2801142E+03 -0.2926246E+01  0.1014547E-04 -0.5013841E+00  0.2065839E+03  0.1586387E+01  0.6080982E-12  0.1526965E+01
  0.2040000E+01  0.7946793E+03 -0.1553585E+01  0.9178683E-05 -0.1881381E+01  0.2888900E+03 -0.2922853E+01  0.2307130E-04 -0.3308957E+00  0.2122555E+03  0.1587718E+01  0.5806595E-12 -0.1644283E+01
  0.2080000E+01  0.8174468E+03 -0.1552108E+01  0.3846040E-04  0.2714556E+01  0.2977655E+03 -0.2919226E+01  0.1053764E-04  0.2177702E+01  0.2180470E+03  0.1589174E+01  0.2688116E-12 -0.1438245E+01
  0.2120000E+01  0.8407070E+03 -0.1550510E+01  0.2454398E-04  0.1834918E+01  0.3068001E+03 -0.2915351E+01  0.1964019E-04  0.1315896E+01  0.2239713E+03  0.1590749E+01  0.4629583E-12 -0.1639917E+01
  0.2160000E+01  0.8644559E+03 -0.1548788E+01  0.5950990E-04  0.2867450E-01  0.3159541E+03 -0.2911005E+01  0.2237637E-04  0.4316833E-01  0.2300225E+03  0.1592443E+01  0.1078699E-11  0.1635064E+01
  0.2200000E+01  0.8886666E+03 -0.1546940E+01  0.8519730E-04 -0.7430270E+00  0.3248528E+03 -0.2907159E+01  0.3625850E-05  0.3079090E+01  0.2361747E+03  0.1594260E+01  0.1138117E-11 -0.1617637E+01
  0.2240000E+01  0.9134288E+03 -0.1544960E+01  0.1090190E-03 -0.8210262E-01  0.3335589E+03 -0.2904107E+01  0.3430240E-04  0.1412761E+01  0.2424821E+03  0.1596203E+01  0.1123467E-12  0.1892547E+01
  0.2280000E+01  0.9385798E+03 -0.1542836E+01  0.1272314E-03  0.3020666E+01  0.3422578E+03 -0.2900988E+01  0.8702334E-05  0.8318228E+00  0.2488825E+03  0.1598288E+01  0.2663351E-12 -0.1731559E+01
  0.2320000E+01  0.9645165E+03 -0.1540556E+01  0.1987967E-04  0.6647905E+00  0.3510179E+03 -0.2897913E+01  0.3621673E-04  0.8396697E+00  0.2554507E+03  0.1600525E+01  0.1754911E-12 -0.3729877E+00
  0.2360000E+01  0.9909152E+03 -0.1538095E+01  0.1250804E-03  0.2061885E+01  0.3595802E+03 -0.2894684E+01  0.2007440E-04  0.3576874E+00  0.2620566E+03  0.1602942E+01  0.1444330E-11 -0.1622474E+01
  0.2400000E+01  0.1018043E+04 -0.1535439E+01  0.8449697E-04  0.1663779E+01  0.3673643E+03 -0.2890770E+01  0.3304317E-04 -0.1660577E+01  0.2688033E+03  0.1605554E+01  0.4355227E-12  0.1668842E+01
  0.2440000E+01  0.1045980E+04 -0.1532568E+01  0.7031910E-04  0.7935646E+00  0.3752011E+03 -0.2886730E+01  0.4312390E-04  0.3007893E+01  0.2757083E+03  0.1608380E+01  0.3250102E-12 -0.1293998E+01
  0.2480000E+01  0.1074557E+04 -0.1529464E+01  0.8205519E-04 -0.3079446E+01  0.3829217E+03 -0.2882367E+01  0.4114598E-04  0.2897661E+01  0.2827345E+03  0.1611441E+01  0.7682163E-12  0.1714655E+01
  0.2520000E+01  0.1103819E+04 -0.1526129E+01  0.1552933E-03  0.7508215E+00  0.3905425E+03 -0.2877634E+01  0.2919184E-04  0.1163376E+01  0.2899271E+03  0.1614730E+01  0.5710041E-12 -0.1861061E+01
  0.2560000E+01  0.1133552E+04 -0.1522565E+01  0.1236310E-03  0.1519911E+01  0.3981497E+03 -0.2872455E+01  0.2535765E-04  0.2951381E+01  0.2972008E+03  0.1618244E+01  0.7309012E-12  0.1380074E+01
  0.2600000E+01  0.1163957E+04 -0.1518781E+01  0.5174417E-04 -0.6932265E+00  0.4056157E+03 -0.2867515E+01  0.2061535E-05 -0.7582546E+00  0.3045905E+03  0.1621975E+01  0.6828699E-12  0.1617637E+01
  0.2640000E+01  0.1194999E+04 -0.1514781E+01  0.9275320E-04 -0.2207600E+00  0.4125971E+03 -0.2864100E+01  0.1910687E-04 -0.1356481E+01  0.3121398E+03  0.1625916E+01  0.1865090E-12 -0.2275290E+01
  0.2680000E+01  0.1226249E+04 -0.1510557E+01  0.1119453E-03 -0.1612472E+01  0.4194862E+03 -0.2860622E+01  0.5652260E-04 -0.1555469E+01  0.3196878E+03  0.1630078E+01  0.3177644E-12 -0.2034444E+01
  0.2720000E+01  0.1258108E+04 -0.1506084E+01  0.9140524E-04 -0.1059961E+01  0.4262746E+03 -0.2857211E+01  0.2147228E-04 -0.3026656E+01  0.3273918E+03  0.1634482E+01  0.6390936E-12 -0.1425755E+01
  0.2760000E+01  0.1290389E+04 -0.1501338E+01  0.1632538E-03 -0.1567229E+00  0.4330898E+03 -0.2854016E+01  0.4372445E-04 -0.2908742E+01  0.3351843E+03  0.1639154E+01  0.9379231E-12  0.1574584E+01
  0.2800000E+01  0.1322707E+04 -0.1496278E+01  0.1360845E-03 -0.1116208E+01  0.4384598E+03 -0.2849934E+01  0.4039960E-04 -0.1065002E+00  0.3429232E+03  0.1644136E+01  0.5446671E-12  0.1439969E+01
  0.2840000E+01  0.1355879E+04 -0.1490912E+01  0.1200207E-03 -0.3011369E+00  0.4437498E+03 -0.2845795E+01  0.3264512E-04  0.1948268E+00  0.3509179E+03  0.1649414E+01  0.3133646E-12 -0.1502720E+01
  0.2880000E+01  0.1389121E+04 -0.1485199E+01  0.1595353E-03 -0.3134961E+01  0.4489986E+03 -0.2841583E+01  0.4684340E-05 -0.6283023E+00  0.3588769E+03  0.1655037E+01  0.1195577E-11 -0.1406625E+01
  0.2920000E+01  0.1422985E+04 -0.1479142E+01  0.4574062E-04  0.9263830E+00  0.4536095E+03 -0.2836727E+01  0.3052955E-04 -0.1999815E+01  0.3670126E+03  0.1660997E+01  0.7319970E-12 -0.1551381E+01
  0.2960000E+01  0.1456839E+04 -0.1472732E+01  0.1145419E-03  0.2156634E+01  0.4581791E+03 -0.2831715E+01  0.1536529E-04  0.2777517E+01  0.3751475E+03  0.1667296E+01  0.1712939E-11  0.1595688E+01
  0.3000000E+01  0.1491347E+04 -0.1466034E+01  0.1110935E-03  0.3018011E+01  0.4627417E+03 -0.2826363E+01  0.3473363E-04  0.3016978E+01  0.3833520E+03  0.1673882E+01  0.1493831E-12  0.3094010E+01
  0.3040000E+01  0.1526218E+04 -0.1459068E+01  0.8623557E-04 -0.2484043E+01  0.4667984E+03 -0.2821537E+01  0.3743494E-04 -0.2662490E+01  0.3914875E+03  0.1680743E+01  0.2575656E-12 -0.1997424E+01
  0.3080000E+01  0.1561548E+04 -0.1451842E+01  0.9483210E-04  0.1617953E+01  0.4709354E+03 -0.2818240E+01  0.2860826E-04  0.1478954E+01  0.3996971E+03  0.1687859E+01  0.1168476E-11  0.1775944E+01
  0.3120000E+01  0.1596876E+04 -0.1444340E+01  0.1930688E-03  0.1471650E+01  0.4747595E+03 -0.2814785E+01  0.4522200E-04  0.2339094E+01  0.4077842E+03  0.1695257E+01  0.3844982E-12 -0.1506072E+01
  0.3160000E+01  0.1632389E+04 -0.1436546E+01  0.1023661E-03 -0.2869532E+01  0.4786447E+03 -0.2811639E+01  0.5260701E-04 -0.2187787E+01  0.4158804E+03  0.1702939E+01  0.1411621E-11 -0.1763256E+01
  0.3200000E+01  0.1668088E+04 -0.1428438E+01  0.1979396E-03  0.1238999E+01  0.4821269E+03 -0.2808425E+01  0.5765580E-04 -0.1127845E+00  0.4239824E+03  0.1710928E+01  0.1171857E-11  0.1325818E+01
  0.3240000E+01  0.1702939E+04 -0.1419962E+01  0.1030187E-03  0.8541844E+00  0.4850741E+03 -0.2805362E+01  0.3408494E-04  0.2634443E+01  0.4317481E+03  0.1719292E+01  0.1447752E-11 -0.1656791E+01
  0.3280000E+01  0.1738275E+04 -0.1411140E+01  0.2190141E-03  0.1772775E+01  0.4868411E+03 -0.2801498E+01  0.2537847E-04  0.1086650E+01  0.4396147E+03  0.1727997E+01  0.1913765E-11 -0.1520653E+01
  0.3320000E+01  0.1773435E+04 -0.1401958E+01  0.1411582E-03 -0.2020045E+01  0.4884086E+03 -0.2797553E+01  0.5046418E-04  0.2952608E+01  0.4473616E+03  0.1737064E+01  0.6104054E-12 -0.1781890E+01
  0.3360000E+01  0.1808263E+04 -0.1392385E+01  0.1711880E-03 -0.1083868E+01  0.4895638E+03 -0.2793257E+01  0.7446382E-04  0.2016213E+01  0.4549840E+03  0.1746520E+01  0.3930528E-12  0.8621700E+00
  0.3400000E+01  0.1843002E+04 -0.1382442E+01  0.2712008E-03 -0.1963149E+01  0.4908386E+03 -0.2789159E+01  0.5002501E-04 -0.1167751E+01  0.4625826E+03  0.1756338E+01  0.1350036E-11  0.1568165E+01
  0.3440000E+01  0.1876853E+04 -0.1372110E+01  0.2448845E-03 -0.1884085E+01  0.4919979E+03 -0.2785003E+01  0.3257453E-04  0.1940000E+01  0.4698907E+03  0.1766538E+01  0.4212064E-12 -0.1667947E+01
  0.3480000E+01  0.1910537E+04 -0.1361452E+01  0.1069376E-03 -0.2274866E+01  0.4925066E+03 -0.2780014E+01  0.3176733E-04  0.8832921E+00  0.4771555E+03  0.1777051E+01  0.1556236E-11  0.1737071E+01
  0.3520000E+01  0.1943452E+04 -0.1350477E+01  0.2755490E-03  0.2616300E+00  0.4930880E+03 -0.2775935E+01  0.4799030E-04  0.1285526E+01  0.4841269E+03  0.1787885E+01  0.4008470E-12 -0.8136038E+00
  0.3560000E+01  0.1975850E+04 -0.1339219E+01  0.1201612E-04  0.1319201E+01  0.4937482E+03 -0.2772855E+01  0.2634884E-04 -0.1571459E+01  0.4909882E+03  0.1798983E+01  0.6706353E-12  0.1660977E+01
  0.3600000E+01  0.2007371E+04 -0.1327652E+01  0.9738779E-04 -0.5451494E+00  0.4941217E+03 -0.2769617E+01  0.5485623E-04  0.7932048E+00  0.4975515E+03  0.1810387E+01  0.1062887E-11  0.1482103E+01
  0.3640000E+01  0.2037964E+04 -0.1315787E+01  0.1670200E-03  0.1453114E+01  0.4945326E+03 -0.2766650E+01  0.2769816E-04  0.1107933E+01  0.5039060E+03  0.1822065E+01  0.1851591E-12 -0.1638003E+01
  0.3680000E+01  0.2067879E+04 -0.1303624E+01  0.1830149E-03  0.2883062E+01  0.4946644E+03 -0.2763643E+01  0.1073854E-03  0.1218791E+01  0.5100842E+03  0.1834018E+01  0.7451918E-12 -0.1760244E+01
  0.3720000E+01  0.2096246E+04 -0.1291114E+01  0.7615354E-04  0.2151798E+01  0.4948067E+03 -0.2760989E+01  0.5064635E-04  0.1308218E+01  0.5158597E+03  0.1846304E+01  0.5316057E-12  0.2115227E+01
  0.3760000E+01  0.2123161E+04 -0.1278282E+01  0.2591891E-03 -0.1532296E+01  0.4933189E+03 -0.2757865E+01  0.6231224E-04 -0.2049474E+01  0.5211524E+03  0.1858909E+01  0.1551801E-11  0.1348030E+01
  0.3800000E+01  0.2149905E+04 -0.1265262E+01  0.1819264E-03  0.1258144E+01  0.4917231E+03 -0.2754709E+01  0.7571746E-04  0.1067229E+01  0.5263273E+03  0.1871706E+01  0.1818414E-11  0.1902123E+01
  0.3840000E+01  0.2175396E+04 -0.1251989E+01  0.1008453E-03  0.2143164E+01  0.4901222E+03 -0.2751792E+01  0.2873163E-04 -0.1668707E+01  0.5310536E+03  0.1884773E+01  0.2505352E-11  0.1409145E+01
  0.3880000E+01  0.2199655E+04 -0.1238436E+01  0.1531222E-03 -0.9140015E+00  0.4880286E+03 -0.2748420E+01  0.4071881E-04  0.2366462E+01  0.5354116E+03  0.1898123E+01  0.8984802E-12  0.8147603E+00
  0.3920000E+01  0.2222849E+04 -0.1224638E+01  0.1239036E-03 -0.5679519E-01  0.4858158E+03 -0.2745077E+01  0.3234251E-04  0.1204178E+01  0.5394872E+03  0.1911713E+01  0.8602630E-12  0.2565044E+01
  0.3960000E+01  0.2244092E+04 -0.1210546E+01  0.2536247E-03  0.1977219E+01  0.4834938E+03 -0.2741762E+01  0.7636492E-04  0.2433275E+01  0.5430184E+03  0.1925591E+01  0.1765399E-11 -0.1679176E+01
  0.4000000E+01  0.2263991E+04 -0.1196222E+01  0.1503150E-03 -0.1587860E+01  0.4807599E+03 -0.2737985E+01  0.2170111E-04  0.2320759E+01  0.5461724E+03  0.1939704E+01  0.4550942E-12 -0.1531754E+01
  0.4040000E+01  0.2282556E+04 -0.1181699E+01  0.2226514E-03  0.2956155E+00  0.4781642E+03 -0.2734471E+01  0.2404705E-04 -0.9472976E-01  0.5489642E+03  0.1954012E+01  0.1359812E-11  0.1273834E+01
  0.4080000E+01  0.2299322E+04 -0.1166977E+01  0.1969827E-03 -0.2954410E+01  0.4753168E+03 -0.2731384E+01  0.4305640E-04  0.2747705E+01  0.5512671E+03  0.1968515E+01  0.7685551E-12 -0.4088371E+00
  0.4120000E+01  0.2314572E+04 -0.1152073E+01  0.1295556E-03  0.2370539E+01  0.4722855E+03 -0.2728181E+01  0.1448957E-04  0.2770458E+01  0.5531938E+03  0.1983193E+01  0.5114805E-12 -0.3695426E+00
  0.4160000E+01  0.2327807E+04 -0.1137016E+01  0.5936258E-04 -0.1695136E+01  0.4693785E+03 -0.2725346E+01  0.9272253E-04  0.1216171E+01  0.5545349E+03  0.1998033E+01  0.1728803E-11  0.9869260E+00
  0.4200000E+01  0.2339224E+04 -0.1121789E+01  0.2585144E-03  0.1343657E+01  0.4664092E+03 -0.2722605E+01  0.9376235E-04 -0.2233987E+01  0.5554882E+03  0.2013014E+01  0.1707622E-11 -0.2721573E+01
  0.4240000E+01  0.2348919E+04 -0.1106427E+01  0.1845680E-03 -0.8269991E+00  0.4633862E+03 -0.2720031E+01  0.7783389E-04 -0.1475650E+01  0.5560308E+03  0.2028103E+01  0.1366301E-11  0.7424065E+00
  0.4280000E+01  0.2356524E+04 -0.1090912E+01  0.3433297E-04 -0.1206692E+01  0.4603623E+03 -0.2717737E+01  0.5340468E-04 -0.1786660E+01  0.5560789E+03  0.2043329E+01  0.1624786E-11 -0.2029799E+01
  0.4320000E+01  0.2361332E+04 -0.1075221E+01  0.9172336E-04 -0.1681161E+01  0.4560798E+03 -0.2714575E+01  0.9104636E-04  0.1364287E+01  0.5553661E+03  0.2058729E+01  0.5001841E-12  0.3328409E+00
  0.4360000E+01  0.2364764E+04 -0.1059507E+01  0.3312629E-04 -0.2419111E+01  0.4518689E+03 -0.2712637E+01  0.4734361E-04  0.1639498E+01  0.5542964E+03  0.2074149E+01  0.1562142E-11 -0.1188733E+01
  0.4400000E+01  0.2366675E+04 -0.1043800E+01  0.1692988E-03  0.7320747E-01  0.4470823E+03 -0.2709802E+01  0.7981034E-04  0.2036438E+01  0.5528922E+03  0.2089547E+01  0.7841368E-12  0.1490289E+01
  0.4440000E+01  0.2366251E+04 -0.1028071E+01  0.3435482E-03  0.1545927E+01  0.4425601E+03 -0.2707689E+01  0.5723359E-04  0.1286438E+01  0.5508162E+03  0.2104993E+01  0.5667513E-12  0.1306812E+01
  0.4480000E+01  0.2363879E+04 -0.1012317E+01  0.1418661E-03 -0.1182022E+01  0.4377849E+03 -0.2705280E+01  0.1172429E-03  0.1898120E+01  0.5482802E+03  0.2120466E+01  0.1174341E-11  0.3328423E+00
  0.4520000E+01  0.2359964E+04 -0.9965605E+00  0.3025313E-04 -0.6999917E-01  0.4328621E+03 -0.2702872E+01  0.1905666E-03  0.1751567E+01  0.5454395E+03  0.2135919E+01  0.1206477E-11 -0.7683492E+00
  0.4560000E+01  0.2353552E+04 -0.9807490E+00  0.9497425E-04  0.7511795E+00  0.4278333E+03 -0.2700376E+01  0.9072913E-04  0.1816525E+01  0.5420172E+03  0.2151412E+01  0.1955328E-11  0.2466426E+01
  0.4600000E+01  0.2344915E+04 -0.9649776E+00  0.1564502E-03 -0.1116661E+01  0.4225326E+03 -0.2697454E+01  0.5244713E-04 -0.1167656E+01  0.5380066E+03  0.2166883E+01  0.7260591E-12  0.1510819E+01
  0.4640000E+01  0.2334700E+04 -0.9492064E+00  0.4100590E-03  0.1117131E+01  0.4172342E+03 -0.2694659E+01  0.2603820E-04  0.2335620E+01  0.5337327E+03  0.2182332E+01  0.2433090E-12 -0.2963519E+00
  0.4680000E+01  0.2322287E+04 -0.9335503E+00  0.6542324E-04  0.2481845E+01  0.4120732E+03 -0.2692330E+01  0.1033287E-03 -0.1546993E+01  0.5288670E+03  0.2197673E+01  0.1088280E-11 -0.1971991E+01
  0.4720000E+01  0.2308222E+04 -0.9178994E+00  0.1740364E-03  0.7761690E+00  0.4069610E+03 -0.2690424E+01  0.3412655E-04 -0.9525596E+00  0.5236939E+03  0.2212991E+01  0.1120383E-11 -0.1135869E+01
  0.4760000E+01  0.2292183E+04 -0.9023330E+00  0.1317977E-03  0.8783996E+00  0.4014132E+03 -0.2687510E+01  0.3007738E-04 -0.1189127E+01  0.5180684E+03  0.2228226E+01  0.8920535E-12 -0.1809013E+01
  0.4800000E+01  0.2274115E+04 -0.8868728E+00  0.2221602E-03 -0.1794629E+01  0.3958477E+03 -0.2684536E+01  0.1846994E-04  0.1487966E+01  0.5119436E+03  0.2243359E+01  0.2082948E-11 -0.1121070E+01
  0.4840000E+01  0.2254240E+04 -0.8714738E+00  0.3015541E-03  0.1189156E+01  0.3905117E+03 -0.2682278E+01  0.1418379E-04 -0.8281451E+00  0.5055092E+03  0.2258386E+01  0.1669822E-11  0.4022378E+00
  0.4880000E+01  0.2232985E+04 -0.8562628E+00  0.3145747E-03 -0.9077637E+00  0.3852077E+03 -0.2680364E+01  0.1842925E-04  0.2319416E+01  0.4987889E+03  0.2273198E+01  0.1158779E-11  0.2931570E+01
  0.4920000E+01  0.2210303E+04 -0.8412601E+00  0.3229656E-03  0.1654485E+01  0.3797388E+03 -0.2678073E+01  0.1594516E-03 -0.1226846E+01  0.4918049E+03  0.2287781E+01  0.6550027E-12  0.1507701E+01
  0.4960000E+01  0.2185226E+04 -0.8263519E+00  0.1893790E-03 -0.1334215E+01  0.3746129E+03 -0.2676973E+01  0.1327759E-03 -0.1607253E+01  0.4842248E+03  0.2302300E+01  0.9607218E-12  0.2963145E+01
  0.5000000E+01  0.2158440E+04 -0.8116439E+00  0.1427483E-03 -0.1889923E+01  0.3680967E+03 -0.2673923E+01  0.2678458E-04 -0.1571529E+01  0.4762040E+03  0.2316607E+01  0.2148693E-11  0.4776049E+00
  0.5040000E+01  0.2130802E+04 -0.7970738E+00  0.1596454E-03 -0.1397421E+01  0.3620024E+03 -0.2672551E+01  0.1287308E-03  0.1676621E+01  0.4681375E+03  0.2330749E+01  0.1218348E-11 -0.9552926E+00
  0.5080000E+01  0.2102004E+04 -0.7827134E+00  0.6518810E-04 -0.2606168E+01  0.3558842E+03 -0.2671272E+01  0.1721252E-04  0.1107726E+00  0.4599055E+03  0.2344659E+01  0.7184294E-12  0.8505707E+00
  0.5120000E+01  0.2071389E+04 -0.7685428E+00  0.2258193E-03  0.1355930E+01  0.3500030E+03 -0.2670815E+01  0.1638692E-04 -0.1449167E-01  0.4512311E+03  0.2358388E+01  0.1171448E-11 -0.2902774E+01
  0.5160000E+01  0.2039612E+04 -0.7545562E+00  0.7564533E-03  0.1476879E+01  0.3435948E+03 -0.2668276E+01  0.1251840E-03  0.1581980E+01  0.4423657E+03  0.2371936E+01  0.6244160E-12  0.2946917E+01
  0.5200000E+01  0.2006630E+04 -0.7407513E+00  0.3717081E-03  0.1438522E+01  0.3375790E+03 -0.2667747E+01  0.6339550E-04 -0.1638020E+01  0.4333260E+03  0.2385267E+01  0.1572520E-11 -0.2824531E+01
  0.5240000E+01  0.1972600E+04 -0.7270879E+00  0.4332665E-04  0.6573038E+00  0.3313879E+03 -0.2666512E+01  0.2759272E-04  0.4369787E+00  0.4241606E+03  0.2398440E+01  0.6206978E-12  0.2827365E+01
  0.5280000E+01  0.1937209E+04 -0.7136403E+00  0.8920289E-04 -0.1140458E+01  0.3250795E+03 -0.2664595E+01  0.1577187E-03  0.1640420E+01  0.4147078E+03  0.2411382E+01  0.1089929E-11  0.2813013E+01
  0.5320000E+01  0.1900767E+04 -0.7003840E+00  0.1018647E-03 -0.3932480E+00  0.3188759E+03 -0.2663280E+01  0.1726605E-03  0.1610849E+01  0.4050969E+03  0.2424113E+01  0.5730369E-12  0.2254917E+01
  0.5360000E+01  0.1863735E+04 -0.6874016E+00  0.6024935E-03 -0.1635901E+01  0.3126762E+03 -0.2661980E+01  0.3338750E-04  0.1663080E+01  0.3954722E+03  0.2436553E+01  0.1936664E-11 -0.3036838E+01
  0.5400000E+01  0.1825756E+04 -0.6747192E+00  0.1874826E-03  0.1685197E+01  0.3068489E+03 -0.2662459E+01  0.5425964E-04 -0.1480071E+01  0.3856305E+03  0.2448671E+01  0.9630877E-12 -0.1721807E+01
  0.5440000E+01  0.1787018E+04 -0.6622415E+00  0.2066978E-03  0.1588833E+01  0.3005513E+03 -0.2660242E+01  0.7222906E-04 -0.1567272E+01  0.3757245E+03  0.2460580E+01  0.2327648E-11 -0.3635884E+00
  0.5480000E+01  0.1747688E+04 -0.6500059E+00  0.1746498E-03 -0.1194619E+01  0.2946685E+03 -0.2660631E+01  0.1908427E-03 -0.1585201E+01  0.3657819E+03  0.2472239E+01  0.6105660E-12  0.2327699E-01
  0.5520000E+01  0.1707491E+04 -0.6379988E+00  0.7923692E-04 -0.1570990E+01  0.2884212E+03 -0.2658409E+01  0.1053436E-03 -0.1364839E+01  0.3556741E+03  0.2483655E+01  0.3608203E-12  0.7335926E+00
  0.5560000E+01  0.1666647E+04 -0.6262250E+00  0.1898242E-03 -0.1852574E+01  0.2822468E+03 -0.2656189E+01  0.1023426E-03 -0.1515549E+01  0.3454918E+03  0.2494813E+01  0.9636849E-12  0.1373672E+01
  0.5600000E+01  0.1625285E+04 -0.6146125E+00  0.2091311E-03  0.1740474E+01  0.2764057E+03 -0.2655870E+01  0.4868416E-04 -0.1395838E+01  0.3353240E+03  0.2505765E+01  0.1224628E-11 -0.1044184E+01
  0.5640000E+01  0.1583516E+04 -0.6032303E+00  0.9865530E-04  0.1491804E+01  0.2704362E+03 -0.2654853E+01  0.4420864E-04  0.1396364E+01  0.3251638E+03  0.2516427E+01  0.1785134E-12 -0.1347540E+01
  0.5680000E+01  0.1541537E+04 -0.5920867E+00  0.1965487E-03 -0.1812893E+01  0.2644211E+03 -0.2653124E+01  0.3526427E-04 -0.1480913E+01  0.3150827E+03  0.2526809E+01  0.5863810E-12  0.1595791E+01
  0.5720000E+01  0.1498535E+04 -0.5810662E+00  0.9525163E-04 -0.1849256E+01  0.2585149E+03 -0.2651499E+01  0.4183529E-04 -0.1266223E+01  0.3047865E+03  0.2537073E+01  0.1896823E-11 -0.1053306E+01
  0.5760000E+01  0.1455134E+04 -0.5702662E+00  0.5997869E-04 -0.2032027E+01  0.2525056E+03 -0.2650391E+01  0.5875507E-04 -0.1578550E+01  0.2944408E+03  0.2547042E+01  0.1071731E-11 -0.2314576E+01
  0.5800000E+01  0.1411681E+04 -0.5597081E+00  0.8512113E-04  0.1716323E+01  0.2464124E+03 -0.2648955E+01  0.1059483E-04  0.1889215E+01  0.2841903E+03  0.2556726E+01  0.1129602E-11  0.3088100E+01
  0.5840000E+01  0.1368363E+04 -0.5493786E+00  0.5677814E-04  0.1686134E+01  0.2404497E+03 -0.2648731E+01  0.1354463E-03  0.1543145E+01  0.2741216E+03  0.2566161E+01  0.9071990E-12 -0.2063345E+01
  0.5880000E+01  0.1324954E+04 -0.5393121E+00  0.2492589E-03  0.1429171E+01  0.2347473E+03 -0.2650625E+01  0.4186109E-04  0.1588685E+01  0.2641106E+03  0.2575277E+01  0.1731840E-11  0.2082627E+01
  0.5920000E+01  0.1281156E+04 -0.5294419E+00  0.4004400E-03  0.1596061E+01  0.2288899E+03 -0.2649322E+01  0.5502531E-04  0.1519116E+01  0.2540648E+03  0.2584153E+01  0.2003064E-11 -0.1714512E+01
  0.5960000E+01  0.1237310E+04 -0.5197524E+00  0.2682257E-03  0.1437859E+01  0.2231567E+03 -0.2648529E+01  0.1148002E-03 -0.1600990E+01  0.2441043E+03  0.2592818E+01  0.5251598E-12  0.2443606E+01
  0.6000000E+01  0.1193512E+04 -0.5102941E+00  0.3280221E-04 -0.2256330E+01  0.2173852E+03 -0.2647754E+01  0.5193243E-05  0.1136833E+01  0.2342625E+03  0.2601183E+01  0.1761310E-11 -0.1779565E+01
  0.6039999E+01  0.1149754E+04 -0.5009819E+00  0.1264547E-03 -0.1526740E+01  0.2116528E+03 -0.2646509E+01  0.9459509E-04 -0.1593873E+01  0.2245521E+03  0.2609354E+01  0.2864142E-11  0.2056357E+01