VARIABLES="w (rad/s)"
"abs(F   1   1)" "angle(F   1   1)"
"abs(F   1   2)" "angle(F   1   2)"
"abs(F   1   3)" "angle(F   1   3)"
"abs(F   1   4)" "angle(F   1   4)"
"abs(F   1   5)" "angle(F   1   5)"
"abs(F   1   6)" "angle(F   1   6)"
Zone t="FKforce - beta =   0.000",I=   525,F=POINT
  0.4000000E-01  0.1748772E+02 -0.1570801E+01  0.1157165E-02 -0.3141586E+01  0.3764210E+04 -0.2592447E-10  0.6313317E-03  0.1017206E-04  0.4664969E+01  0.1570799E+01  0.1141448E-12 -0.8960318E-01
  0.8000000E-01  0.3497893E+02 -0.1570798E+01  0.2724886E-02  0.3141591E+01  0.3763168E+04  0.2318612E-10  0.2383515E-03  0.1133856E-04  0.9330590E+01  0.1570795E+01  0.2273738E-12 -0.3140616E+01
  0.1200000E+00  0.5247708E+02 -0.1570796E+01  0.6895065E-03 -0.5132694E-04  0.3761421E+04  0.3992528E-11  0.1715945E-02 -0.1078999E-05  0.1399748E+02  0.1570796E+01  0.3410631E-12  0.3906230E-02
  0.1600000E+00  0.6998562E+02 -0.1570796E+01  0.1406789E-02  0.3141567E+01  0.3758970E+04 -0.1663089E-10  0.4925178E-03  0.3141527E+01  0.1866631E+02  0.1570796E+01  0.5942339E-13 -0.2957517E+00
  0.2000000E+00  0.8750807E+02 -0.1570797E+01  0.1948595E-02 -0.4014744E-04  0.3755829E+04  0.1636584E-10  0.1075228E-03 -0.3141243E+01  0.2333769E+02  0.1570796E+01  0.1711214E-12  0.8314123E-01
  0.2400000E+00  0.1050479E+03 -0.1570796E+01  0.8894205E-03  0.3141354E+01  0.3751990E+04 -0.7136352E-11  0.1699626E-03 -0.3141396E+01  0.2801231E+02  0.1570795E+01  0.4020702E-12  0.2997509E+01
  0.2800000E+00  0.1226090E+03 -0.1570796E+01  0.3705382E-02 -0.3141570E+01  0.3747450E+04 -0.6703871E-10  0.6473749E-03  0.6625000E-04  0.3269090E+02  0.1570796E+01  0.1706135E-12  0.3110353E+01
  0.3200000E+00  0.1401945E+03 -0.1570795E+01  0.1487732E-02 -0.2629207E-04  0.3742219E+04 -0.1070137E-09  0.5100155E-03 -0.5621754E-04  0.3737402E+02  0.1570795E+01  0.3420998E-12 -0.3063626E+01
  0.3600000E+00  0.1578080E+03 -0.1570796E+01  0.9628534E-03 -0.1354154E-04  0.3736295E+04  0.8911175E-11  0.5330499E-03  0.3141589E+01  0.4206234E+02  0.1570796E+01  0.5262762E-12 -0.2367922E+00
  0.4000000E+00  0.1754543E+03 -0.1570796E+01  0.3782153E-02 -0.1280455E-04  0.3729679E+04 -0.2683089E-09  0.1612311E-02  0.3621145E-04  0.4675673E+02  0.1570797E+01  0.2412708E-12 -0.1332960E+01
  0.4400000E+00  0.1931359E+03 -0.1570797E+01  0.9514093E-03  0.3141569E+01  0.3722364E+04 -0.4337158E-09  0.3304724E-03  0.1855414E-03  0.5145776E+02  0.1570797E+01  0.6750156E-13 -0.1570796E+01
  0.4800000E+00  0.2108578E+03 -0.1570797E+01  0.1021862E-02  0.1239501E-03  0.3714365E+04  0.1416655E-10  0.1061798E-02 -0.3141538E+01  0.5616623E+02  0.1570796E+01  0.6355288E-13 -0.4636476E+00
  0.5200000E+00  0.2286229E+03 -0.1570796E+01  0.3447533E-02  0.3141570E+01  0.3705673E+04  0.4209668E-10  0.9773127E-03  0.2130998E-04  0.6088285E+02  0.1570796E+01  0.1546247E-12  0.2396822E+01
  0.5600000E+00  0.2464363E+03 -0.1570796E+01  0.2366781E-02  0.6610758E-04  0.3696291E+04  0.1410984E-10  0.3129034E-03  0.1880561E-03  0.6560851E+02  0.1570796E+01  0.1684826E-12 -0.2311448E+01
  0.6000000E+00  0.2643015E+03 -0.1570796E+01  0.3118634E-02  0.2030694E-04  0.3686229E+04 -0.1225348E-10  0.3950140E-03  0.3141402E+01  0.7034382E+02  0.1570797E+01  0.4559981E-12  0.7408293E-01
  0.6400000E+00  0.2822231E+03 -0.1570796E+01  0.1887084E-03  0.3140685E+01  0.3675478E+04  0.1821861E-09  0.1135746E-02 -0.2505272E-04  0.7508978E+02  0.1570796E+01  0.7390413E-12  0.1442208E-01
  0.6800000E+00  0.3002052E+03 -0.1570797E+01  0.3110171E-03  0.3141042E+01  0.3664048E+04 -0.6989911E-11  0.1675603E-02 -0.3141550E+01  0.7984711E+02  0.1570796E+01  0.2361953E-12  0.2377468E+01
  0.7200000E+00  0.3182533E+03 -0.1570796E+01  0.3456950E-02  0.3141513E+01  0.3651939E+04 -0.7025838E-10  0.8510093E-03 -0.1986204E-03  0.8461689E+02  0.1570796E+01  0.1287338E-12 -0.2653259E+01
  0.7600000E+00  0.3363710E+03 -0.1570796E+01  0.8535387E-04  0.3140894E+01  0.3639151E+04 -0.8048606E-10  0.3060093E-03  0.3141417E+01  0.8939969E+02  0.1570796E+01  0.2278173E-12  0.6241881E-01
  0.8000000E+00  0.3545633E+03 -0.1570796E+01  0.1077771E-02  0.3141448E+01  0.3625689E+04  0.1596433E-09  0.8152461E-04  0.3138621E+01  0.9419662E+02  0.1570796E+01  0.3667564E-12  0.9021068E+00
  0.8400000E+00  0.3728359E+03 -0.1570796E+01  0.2484560E-02 -0.3141575E+01  0.3611559E+04 -0.5735090E-09  0.9632441E-03 -0.7168552E-04  0.9900879E+02  0.1570796E+01  0.2361953E-12 -0.2741674E+00
  0.8800000E+00  0.3911932E+03 -0.1570796E+01  0.1387596E-02 -0.3141346E+01  0.3596756E+04 -0.3909904E-10  0.1393011E-02 -0.2516492E-03  0.1038371E+03  0.1570796E+01  0.2309264E-12 -0.1570796E+01
  0.9200000E+00  0.4096411E+03 -0.1570796E+01  0.2550483E-02 -0.1635896E-03  0.3581293E+04 -0.4803161E-09  0.9704202E-03 -0.3261516E-06  0.1086824E+03  0.1570796E+01  0.8257289E-12 -0.2700256E+00
  0.9600000E+00  0.4281846E+03 -0.1570796E+01  0.4589081E-02  0.1120246E-03  0.3565171E+04 -0.7627858E-10  0.8416940E-03 -0.3141352E+01  0.1135459E+03  0.1570796E+01  0.8230342E-12 -0.2685667E+01
  0.1000000E+01  0.4468303E+03 -0.1570796E+01  0.9706021E-03  0.3141178E+01  0.3548387E+04 -0.1852993E-09  0.1891811E-02 -0.3141532E+01  0.1184289E+03  0.1570797E+01  0.3116684E-12  0.2388441E+01
  0.1040000E+01  0.4655822E+03 -0.1570796E+01  0.4059553E-02 -0.3141572E+01  0.3530958E+04 -0.4101456E-09  0.3634642E-04 -0.2968377E-02  0.1233323E+03  0.1570796E+01  0.4076961E-12 -0.2196141E+00
  0.1080000E+01  0.4844492E+03 -0.1570796E+01  0.3895521E-02 -0.2868903E-04  0.3512875E+04 -0.4385034E-09  0.9317375E-03  0.2858668E-03  0.1282577E+03  0.1570796E+01  0.6119027E-12 -0.9795731E+00
  0.1120000E+01  0.5034350E+03 -0.1570796E+01  0.1419902E-02 -0.3141325E+01  0.3494150E+04 -0.4803009E-09  0.7873802E-03  0.3141317E+01  0.1332060E+03  0.1570796E+01  0.6375216E-12 -0.1963027E+00
  0.1160000E+01  0.5225479E+03 -0.1570796E+01  0.2889752E-02 -0.3141590E+01  0.3474790E+04  0.7341143E-09  0.1177848E-02  0.3141370E+01  0.1381781E+03  0.1570796E+01  0.9255143E-12 -0.5358112E+00
  0.1200000E+01  0.5417936E+03 -0.1570796E+01  0.3623965E-03 -0.1254111E-02  0.3454797E+04 -0.1461090E-09  0.6686051E-03  0.4252066E-03  0.1431760E+03  0.1570796E+01  0.8242372E-12 -0.1291313E+01
  0.1240000E+01  0.5611791E+03 -0.1570796E+01  0.1410127E-02 -0.3141223E+01  0.3434175E+04 -0.2779723E-09  0.1807339E-03 -0.3141207E+01  0.1482012E+03  0.1570796E+01  0.4998227E-12  0.1341334E+01
  0.1280000E+01  0.5807122E+03 -0.1570796E+01  0.2498507E-02  0.3141518E+01  0.3412938E+04 -0.1036125E-08  0.3629693E-03 -0.7454177E-03  0.1532544E+03  0.1570796E+01  0.6022453E-12  0.2804918E+01
  0.1320000E+01  0.6003998E+03 -0.1570796E+01  0.1031637E-02  0.3141253E+01  0.3391087E+04 -0.4633149E-09  0.1602196E-02 -0.3141588E+01  0.1583374E+03  0.1570796E+01  0.5102073E-12 -0.1795508E+01
  0.1360000E+01  0.6202490E+03 -0.1570796E+01  0.1889110E-02 -0.2524137E-03  0.3368630E+04 -0.5114680E-10  0.1123138E-02  0.1961191E-03  0.1634514E+03  0.1570796E+01  0.4832213E-12 -0.3450022E+00
  0.1400000E+01  0.6402682E+03 -0.1570796E+01  0.8142016E-04 -0.2287697E-02  0.3345575E+04 -0.8974793E-09  0.1213539E-03 -0.2743389E-02  0.1685985E+03  0.1570796E+01  0.2280665E-12  0.3063626E+01
  0.1440000E+01  0.6604658E+03 -0.1570796E+01  0.7288457E-03  0.3141051E+01  0.3321929E+04 -0.4752033E-09  0.7931537E-03 -0.3141560E+01  0.1737798E+03  0.1570797E+01  0.3090861E-12 -0.1570796E+01
  0.1480000E+01  0.6808488E+03 -0.1570796E+01  0.3311634E-03 -0.8999280E-04  0.3297703E+04 -0.2264973E-09  0.1133875E-02 -0.3141375E+01  0.1789969E+03  0.1570796E+01  0.2291431E-12  0.2089942E+01
  0.1520000E+01  0.7014265E+03 -0.1570796E+01  0.1847982E-02 -0.3141375E+01  0.3272903E+04  0.1934977E-09  0.7589455E-03 -0.1799946E-03  0.1842517E+03  0.1570796E+01  0.1326433E-11 -0.2268964E+01
  0.1560000E+01  0.7222071E+03 -0.1570796E+01  0.1917481E-02  0.1942804E-03  0.3247545E+04 -0.1083158E-08  0.2426517E-04  0.3140061E+01  0.1895455E+03  0.1570796E+01  0.6500204E-12 -0.2767982E+00
  0.1600000E+01  0.7431976E+03 -0.1570796E+01  0.1033307E-02 -0.3140453E+01  0.3221632E+04 -0.1343374E-08  0.1396666E-02  0.3141471E+01  0.1948799E+03  0.1570796E+01  0.6858118E-12  0.3037800E+01
  0.1640000E+01  0.7644095E+03 -0.1570796E+01  0.1436710E-02  0.3141282E+01  0.3195179E+04  0.1017256E-08  0.4598764E-03 -0.3141216E+01  0.2002566E+03  0.1570796E+01  0.3193492E-12 -0.2134113E+01
  0.1680000E+01  0.7858491E+03 -0.1570796E+01  0.6637579E-03  0.1346982E-02  0.3168196E+04 -0.1072366E-08  0.1838647E-03  0.3446751E-04  0.2056772E+03  0.1570796E+01  0.7815970E-12  0.6435011E+00
  0.1720000E+01  0.8075263E+03 -0.1570796E+01  0.2667308E-02 -0.2458100E-03  0.3140695E+04 -0.1179612E-08  0.1151715E-02 -0.3141493E+01  0.2111434E+03  0.1570796E+01  0.4331398E-12 -0.2286540E+01
  0.1760000E+01  0.8294472E+03 -0.1570796E+01  0.1844187E-03  0.3137068E+01  0.3112699E+04  0.2902249E-09  0.1139914E-02 -0.6982768E-03  0.2166563E+03  0.1570796E+01  0.4567414E-12  0.3048116E+01
  0.1800000E+01  0.8516223E+03 -0.1570796E+01  0.1725554E-02 -0.3141575E+01  0.3084205E+04 -0.2379485E-09  0.6591805E-03 -0.1040613E-02  0.2222179E+03  0.1570796E+01  0.1207923E-12  0.1080839E+01
  0.1840000E+01  0.8740610E+03 -0.1570796E+01  0.6910563E-03 -0.4312575E-03  0.3055233E+04 -0.3170218E-10  0.4820263E-03  0.3141567E+01  0.2278296E+03  0.1570796E+01  0.9475827E-12 -0.1070253E+01
  0.1880000E+01  0.8967697E+03 -0.1570796E+01  0.1081705E-02  0.5096980E-03  0.3025807E+04 -0.3201049E-09  0.9538733E-04  0.3135977E+01  0.2334921E+03  0.1570796E+01  0.6355288E-13  0.4636476E+00
  0.1920000E+01  0.9197529E+03 -0.1570796E+01  0.6497563E-04  0.3127373E+01  0.2995930E+04 -0.3557511E-08  0.3111238E-03 -0.1627880E-02  0.2392066E+03  0.1570796E+01  0.4069370E-12  0.2003204E+01
  0.1960000E+01  0.9430225E+03 -0.1570796E+01  0.4899505E-03 -0.3140528E+01  0.2965629E+04 -0.7888654E-09  0.2810768E-03 -0.1094034E-02  0.2449750E+03  0.1570796E+01  0.9237056E-13  0.1570796E+01
  0.2000000E+01  0.9665840E+03 -0.1570796E+01  0.2278093E-03 -0.1700679E-02  0.2934916E+04  0.9646684E-10  0.3830120E-03 -0.3140406E+01  0.2507976E+03  0.1570796E+01  0.9237056E-12 -0.1322086E+01
  0.2040000E+01  0.9904414E+03 -0.1570796E+01  0.1174212E-03 -0.2538071E-03  0.2903810E+04  0.1551664E-08  0.4302486E-03  0.3140885E+01  0.2566748E+03  0.1570796E+01  0.1705303E-12  0.3141593E+01
  0.2080000E+01  0.1014601E+04 -0.1570796E+01  0.1202346E-02 -0.1239341E-02  0.2872331E+04 -0.2041411E-08  0.7460845E-03 -0.3141012E+01  0.2626074E+03  0.1570796E+01  0.7889585E-12  0.2375300E+01
  0.2120000E+01  0.1039067E+04 -0.1570796E+01  0.1558483E-02 -0.2485945E-03  0.2840496E+04  0.1659039E-09  0.9236927E-04  0.3141357E+01  0.2685957E+03  0.1570796E+01  0.6674943E-12 -0.2010639E+01
  0.2160000E+01  0.1063841E+04 -0.1570796E+01  0.2782524E-02 -0.3141443E+01  0.2808326E+04  0.1363659E-08  0.8470810E-03 -0.1481207E-03  0.2746396E+03  0.1570796E+01  0.8021584E-12 -0.1895348E+01
  0.2200000E+01  0.1088927E+04 -0.1570796E+01  0.6301413E-03 -0.1749904E-02  0.2775842E+04 -0.3496013E-09  0.4656281E-03 -0.1546517E-02  0.2807383E+03  0.1570796E+01  0.2741811E-12  0.2115660E+01
  0.2240000E+01  0.1114323E+04 -0.1570796E+01  0.1255989E-02 -0.3141000E+01  0.2743062E+04  0.9642351E-10  0.1896241E-03  0.3141071E+01  0.2868914E+03  0.1570796E+01  0.6267293E-12 -0.9953717E+00
  0.2280000E+01  0.1140035E+04 -0.1570796E+01  0.1210630E-02  0.3141482E+01  0.2710009E+04  0.3065450E-09  0.6232227E-04 -0.2917578E-02  0.2930977E+03  0.1570796E+01  0.6117274E-12  0.1034361E+01
  0.2320000E+01  0.1166051E+04 -0.1570796E+01  0.2135042E-03 -0.1954213E-02  0.2676711E+04 -0.1551792E-09  0.9393352E-03 -0.3141559E+01  0.2993554E+03  0.1570796E+01  0.8799549E-12 -0.8253769E+00
  0.2360000E+01  0.1192375E+04 -0.1570796E+01  0.1813293E-02 -0.8217737E-04  0.2643181E+04 -0.1226175E-09  0.7430457E-03 -0.7506604E-03  0.3056624E+03  0.1570796E+01  0.3948470E-12  0.2613518E+01
  0.2400000E+01  0.1218999E+04 -0.1570796E+01  0.1974285E-02 -0.5358814E-03  0.2609442E+04 -0.1748834E-09  0.9877083E-03  0.2698571E-03  0.3120181E+03  0.1570796E+01  0.3240573E-12 -0.6610432E+00
  0.2440000E+01  0.1245914E+04 -0.1570796E+01  0.1306356E-02 -0.3140406E+01  0.2575521E+04  0.1386396E-08  0.5217091E-04  0.3137009E+01  0.3184179E+03  0.1570796E+01  0.5100588E-12  0.2815437E+01
  0.2480000E+01  0.1273112E+04 -0.1570796E+01  0.1203419E-03  0.3140354E+01  0.2541440E+04  0.1496601E-08  0.9996401E-03 -0.5599446E-03  0.3248588E+03  0.1570796E+01  0.9081615E-12 -0.1922241E+01
  0.2520000E+01  0.1300586E+04 -0.1570796E+01  0.1314104E-02 -0.3140629E+01  0.2507213E+04  0.1877345E-08  0.1196087E-02  0.2153520E-03  0.3313377E+03  0.1570796E+01  0.2133333E-11  0.1610775E+01
  0.2560000E+01  0.1328317E+04 -0.1570796E+01  0.6728772E-03 -0.3140574E+01  0.2472875E+04 -0.4067446E-10  0.3764008E-03  0.5931419E-03  0.3378501E+03  0.1570796E+01  0.1959153E-11  0.1498197E+01
  0.2600000E+01  0.1356295E+04 -0.1570796E+01  0.4057884E-03 -0.1101645E-03  0.2438437E+04  0.4460992E-09  0.4350765E-03 -0.3141294E+01  0.3443914E+03  0.1570796E+01  0.6425208E-12 -0.1392921E+01
  0.2640000E+01  0.1384504E+04 -0.1570796E+01  0.2287031E-03 -0.8470157E-03  0.2403922E+04 -0.3317073E-08  0.8431427E-03 -0.4310728E-03  0.3509570E+03  0.1570796E+01  0.1504204E-11 -0.1958320E+01
  0.2680000E+01  0.1412925E+04 -0.1570796E+01  0.9759670E-03 -0.3140509E+01  0.2369354E+04  0.4842625E-09  0.2920185E-04  0.1568467E-03  0.3575405E+03  0.1570796E+01  0.4343619E-12  0.1305979E+01
  0.2720000E+01  0.1441541E+04 -0.1570796E+01  0.1218915E-02  0.3141311E+01  0.2334752E+04 -0.8935265E-10  0.8897135E-03 -0.3009332E-03  0.3641371E+03  0.1570796E+01  0.4278034E-12  0.1771449E+01
  0.2760000E+01  0.1470329E+04 -0.1570796E+01  0.1594187E-02 -0.3140275E+01  0.2300133E+04 -0.1283532E-08  0.6696377E-04 -0.1244210E-02  0.3707412E+03  0.1570796E+01  0.6927336E-12  0.2966326E+01
  0.2800000E+01  0.1499266E+04 -0.1570796E+01  0.2111495E-02 -0.3141162E+01  0.2265514E+04 -0.2310307E-09  0.5495246E-03 -0.3407366E-03  0.3773448E+03  0.1570796E+01  0.9205300E-12 -0.1415800E+01
  0.2840000E+01  0.1528335E+04 -0.1570796E+01  0.1063526E-02  0.3923107E-03  0.2230917E+04 -0.2504771E-11  0.8957451E-03  0.5190468E-04  0.3839428E+03  0.1570796E+01  0.1206354E-11 -0.8813370E+00
  0.2880000E+01  0.1557506E+04 -0.1570796E+01  0.2352006E-03 -0.3139249E+01  0.2196361E+04 -0.8310986E-09  0.2223856E-03  0.3139075E+01  0.3905277E+03  0.1570796E+01  0.7553173E-12 -0.7188300E+00
  0.2920000E+01  0.1586759E+04 -0.1570796E+01  0.5961063E-03  0.3140568E+01  0.2161856E+04  0.5781305E-09  0.1297306E-03  0.2300194E-02  0.3970930E+03  0.1570796E+01  0.1473618E-11 -0.1454814E+01
  0.2960000E+01  0.1616064E+04 -0.1570796E+01  0.2196194E-02 -0.1065244E-02  0.2127423E+04  0.1891167E-08  0.3572538E-03 -0.6574871E-03  0.4036309E+03  0.1570796E+01  0.2536638E-11 -0.1570796E+01
  0.3000000E+01  0.1645402E+04 -0.1570796E+01  0.2246683E-03 -0.3128792E+01  0.2093073E+04 -0.3495564E-08  0.3630440E-03  0.3141271E+01  0.4101348E+03  0.1570796E+01  0.1269488E-11 -0.1367912E+01
  0.3040000E+01  0.1674742E+04 -0.1570796E+01  0.4246057E-02  0.4562236E-03  0.2058821E+04 -0.2245501E-08  0.3384653E-03  0.1389410E-02  0.4165980E+03  0.1570796E+01  0.1056298E-11 -0.1871274E+01
  0.3080000E+01  0.1704063E+04 -0.1570796E+01  0.1917363E-02 -0.3140660E+01  0.2024682E+04  0.3394686E-09  0.7576558E-04 -0.3124382E+01  0.4230131E+03  0.1570796E+01  0.2069132E-12  0.1292497E+01
  0.3120000E+01  0.1733337E+04 -0.1570796E+01  0.4132996E-03 -0.3139393E+01  0.1990667E+04  0.1993017E-08  0.2405038E-03 -0.6235089E-02  0.4293727E+03  0.1570796E+01  0.1135535E-11 -0.1721543E+01
  0.3160000E+01  0.1762536E+04 -0.1570796E+01  0.9419328E-03  0.3140438E+01  0.1956793E+04 -0.4233041E-08  0.3690570E-03 -0.3140386E+01  0.4356707E+03  0.1570796E+01  0.4723907E-12 -0.1201463E+01
  0.3200000E+01  0.1791639E+04 -0.1570796E+01  0.6085328E-04  0.3098482E+01  0.1923066E+04 -0.5230338E-10  0.1907871E-03  0.3138383E+01  0.4418988E+03  0.1570796E+01  0.1211262E-11 -0.1185933E+01
  0.3240000E+01  0.1820620E+04 -0.1570796E+01  0.5490183E-05  0.4887409E-01  0.1889496E+04  0.5195109E-09  0.4066659E-03  0.1927334E-02  0.4480523E+03  0.1570796E+01  0.5102073E-12  0.1795508E+01
  0.3280000E+01  0.1849456E+04 -0.1570796E+01  0.6217370E-03  0.3139867E+01  0.1856097E+04 -0.2523873E-08  0.3754373E-03 -0.5348093E-03  0.4541247E+03  0.1570796E+01  0.1478202E-11  0.1590025E+01
  0.3320000E+01  0.1878120E+04 -0.1570796E+01  0.2106788E-02 -0.3140263E+01  0.1822878E+04  0.2960200E-08  0.1924697E-03  0.3140506E+01  0.4601088E+03  0.1570796E+01  0.1069880E-11 -0.1274251E+01
  0.3360000E+01  0.1906594E+04 -0.1570796E+01  0.3099563E-02  0.1096111E-02  0.1789849E+04  0.3302050E-08  0.3485737E-03 -0.3141401E+01  0.4659985E+03  0.1570796E+01  0.8517034E-12  0.2019520E+01
  0.3400000E+01  0.1934855E+04 -0.1570796E+01  0.7739068E-03  0.3141246E+01  0.1757019E+04  0.2682096E-09  0.4037564E-03  0.1837532E-02  0.4717890E+03  0.1570796E+01  0.5534941E-12 -0.2301703E+01
  0.3440000E+01  0.1962879E+04 -0.1570796E+01  0.1914025E-02 -0.6383905E-03  0.1724398E+04 -0.8500949E-09  0.7018962E-04 -0.3131912E+01  0.4774737E+03  0.1570796E+01  0.8883774E-12 -0.1442473E+01
  0.3480000E+01  0.1990647E+04 -0.1570796E+01  0.2994541E-03 -0.1492833E-02  0.1691990E+04  0.2509962E-09  0.1519332E-03  0.6344785E-02  0.4830481E+03  0.1570796E+01  0.1103700E-11 -0.1778293E+01
  0.3520000E+01  0.2018141E+04 -0.1570796E+01  0.2122284E-02  0.3140539E+01  0.1659810E+04 -0.4937697E-09  0.4161973E-04 -0.3102242E+01  0.4885080E+03  0.1570796E+01  0.3037934E-12  0.1382575E+01
  0.3560000E+01  0.2045338E+04 -0.1570796E+01  0.3056819E-04  0.3084039E+01  0.1627861E+04 -0.2033295E-08  0.5623407E-03 -0.3470160E-03  0.4938466E+03  0.1570796E+01  0.1668974E-11  0.1294836E+01
  0.3600000E+01  0.2072224E+04 -0.1570796E+01  0.1069129E-02  0.3141258E+01  0.1596155E+04 -0.5344666E-09  0.1299342E-03 -0.3138596E+01  0.4990613E+03  0.1570796E+01  0.9672781E-12 -0.1393571E+01
  0.3640000E+01  0.2098779E+04 -0.1570796E+01  0.2116563E-02 -0.1196845E-02  0.1564694E+04 -0.3490315E-08  0.1696458E-03 -0.3140208E+01  0.5041465E+03  0.1570796E+01  0.1565582E-11  0.1716545E+01
  0.3680000E+01  0.2124989E+04 -0.1570796E+01  0.2201081E-02  0.3141159E+01  0.1533492E+04  0.2446291E-08  0.8693087E-03  0.3140784E+01  0.5090993E+03  0.1570796E+01  0.1456457E-11  0.1473069E+01
  0.3720000E+01  0.2150833E+04 -0.1570796E+01  0.1666428E-02 -0.3140484E+01  0.1502552E+04  0.4840852E-08  0.1215187E-02  0.3141547E+01  0.5139142E+03  0.1570796E+01  0.1604317E-11  0.1246245E+01
  0.3760000E+01  0.2176297E+04 -0.1570796E+01  0.1091840E-02  0.1937982E-02  0.1471882E+04 -0.1714732E-08  0.1673902E-03  0.3139084E+01  0.5185891E+03  0.1570796E+01  0.8363906E-12 -0.1400061E+01
  0.3800000E+01  0.2201373E+04 -0.1570796E+01  0.2201475E-02  0.2626265E-02  0.1441489E+04 -0.1511836E-08  0.1258121E-02  0.1124733E-02  0.5231203E+03  0.1570796E+01  0.1244485E-11 -0.1456356E+01
  0.3840000E+01  0.2226037E+04 -0.1570796E+01  0.3647980E-04  0.9803607E-02  0.1411378E+04  0.4760283E-08  0.5533659E-03  0.1520249E-02  0.5275043E+03  0.1570796E+01  0.1902557E-11 -0.1329441E+01
  0.3880000E+01  0.2250283E+04 -0.1570796E+01  0.5322923E-04 -0.3106873E+01  0.1381559E+04  0.1024647E-09  0.3459437E-03 -0.4342721E-02  0.5317383E+03  0.1570796E+01  0.8110154E-12 -0.1376837E+01
  0.3920000E+01  0.2274094E+04 -0.1570796E+01  0.4059739E-03 -0.5725969E-02  0.1352036E+04  0.1858462E-08  0.8584622E-04  0.1486280E-01  0.5358203E+03  0.1570796E+01  0.1792709E-11 -0.1435626E+01
  0.3960000E+01  0.2297459E+04 -0.1570796E+01  0.2020091E-02  0.3140958E+01  0.1322814E+04 -0.6509616E-08  0.7369345E-03  0.7616641E-03  0.5397463E+03  0.1570796E+01  0.1194473E-11 -0.1606495E+01
  0.4000000E+01  0.2320367E+04 -0.1570796E+01  0.4446990E-04  0.3126848E+01  0.1293903E+04 -0.1476984E-08  0.1580280E-03 -0.2444841E-04  0.5435142E+03  0.1570796E+01  0.1706782E-11  0.1612439E+01
  0.4040000E+01  0.2342808E+04 -0.1570796E+01  0.2305867E-02  0.3140494E+01  0.1265301E+04 -0.4843197E-08  0.5879305E-05 -0.3119934E+01  0.5471234E+03  0.1570796E+01  0.2029169E-11 -0.1465553E+01
  0.4080000E+01  0.2364766E+04 -0.1570796E+01  0.1249850E-02 -0.3141235E+01  0.1237022E+04 -0.4261271E-08  0.2897249E-03 -0.5139642E-02  0.5505699E+03  0.1570796E+01  0.6070880E-12  0.1855527E+01
  0.4120000E+01  0.2386231E+04 -0.1570796E+01  0.5411886E-03 -0.5506855E-02  0.1209068E+04  0.9115512E-08  0.7422098E-03  0.3140737E+01  0.5538536E+03  0.1570796E+01  0.6151840E-12  0.1157592E+00
  0.4160000E+01  0.2407202E+04 -0.1570796E+01  0.1123786E-02  0.3141274E+01  0.1181440E+04 -0.5833378E-10  0.6297520E-03 -0.3140166E+01  0.5569714E+03  0.1570796E+01  0.1233974E-11 -0.1432157E+01
  0.4200000E+01  0.2427662E+04 -0.1570796E+01  0.5023533E-03 -0.3136965E+01  0.1154150E+04 -0.5767962E-08  0.2089692E-03 -0.3140573E+01  0.5599224E+03  0.1570796E+01  0.2692273E-11 -0.1379612E+01
  0.4240000E+01  0.2447604E+04 -0.1570796E+01  0.1345547E-02  0.3139976E+01  0.1127197E+04 -0.1730123E-08  0.8773949E-04 -0.1992733E-02  0.5627059E+03  0.1570796E+01  0.2616689E-11  0.1532771E+01
  0.4280000E+01  0.2467020E+04 -0.1570796E+01  0.1975001E-02  0.3140370E+01  0.1100587E+04  0.3435595E-09  0.6621732E-03  0.3139979E+01  0.5653193E+03  0.1570796E+01  0.1934452E-11  0.1356111E+01
  0.4320000E+01  0.2485900E+04 -0.1570796E+01  0.2117217E-02 -0.3141241E+01  0.1074324E+04 -0.4110800E-08  0.3327376E-03  0.3139196E+01  0.5677623E+03  0.1570796E+01  0.7246143E-13 -0.2944197E+01
  0.4360000E+01  0.2504236E+04 -0.1570796E+01  0.2207400E-02  0.1215099E-02  0.1048412E+04  0.1245421E-08  0.6040704E-03 -0.1216365E-02  0.5700338E+03  0.1570796E+01  0.9359766E-12 -0.2095592E+01
  0.4400000E+01  0.2522023E+04 -0.1570796E+01  0.2631307E-02  0.3141060E+01  0.1022856E+04 -0.8966725E-08  0.3210020E-03 -0.3137933E+01  0.5721353E+03  0.1570796E+01  0.3317558E-12 -0.7551044E+00
  0.4440000E+01  0.2539253E+04 -0.1570796E+01  0.1322734E-02  0.3136501E+01  0.9976552E+03  0.6683942E-08  0.2765602E-03 -0.1877395E-02  0.5740620E+03  0.1570796E+01  0.2094836E-11 -0.1866802E+01
  0.4480000E+01  0.2555923E+04 -0.1570796E+01  0.2688283E-03 -0.3132391E+01  0.9728203E+03 -0.8541414E-08  0.2429041E-03 -0.3138235E+01  0.5758161E+03  0.1570796E+01  0.8269203E-12 -0.1238177E+01
  0.4520000E+01  0.2572018E+04 -0.1570796E+01  0.1360090E-02  0.3140366E+01  0.9483449E+03 -0.8781496E-08  0.3667095E-03  0.7069422E-03  0.5773985E+03  0.1570796E+01  0.1310638E-11  0.1734162E+01
  0.4560000E+01  0.2587539E+04 -0.1570796E+01  0.1135919E-02 -0.2623633E-02  0.9242343E+03  0.1551811E-08  0.2892380E-03 -0.3138718E+01  0.5788058E+03  0.1570796E+01  0.2189175E-11  0.1486307E+01
  0.4600000E+01  0.2602484E+04 -0.1570796E+01  0.4439024E-03  0.3125647E+01  0.9004955E+03 -0.4567175E-08  0.2895246E-03 -0.3141344E+01  0.5800396E+03  0.1570796E+01  0.1137667E-11  0.1213488E+01
  0.4640000E+01  0.2616836E+04 -0.1570796E+01  0.2237469E-02  0.4328889E-03  0.8771278E+03  0.7863592E-08  0.4599956E-04  0.9465463E-02  0.5811006E+03  0.1570796E+01  0.1067825E-11  0.1924115E+01
  0.4680000E+01  0.2630604E+04 -0.1570796E+01  0.4802670E-03  0.3138335E+01  0.8541298E+03 -0.1112183E-09  0.5517377E-04 -0.3141054E+01  0.5819891E+03  0.1570796E+01  0.7189134E-12  0.2321244E+01
  0.4720000E+01  0.2643771E+04 -0.1570796E+01  0.2125353E-02 -0.7922595E-03  0.8315055E+03  0.2822510E-08  0.1048061E-03 -0.3132598E+01  0.5827034E+03  0.1570796E+01  0.1856476E-11 -0.1616741E+01
  0.4760000E+01  0.2656340E+04 -0.1570796E+01  0.1462252E-02  0.1100580E-02  0.8092590E+03  0.1058767E-09  0.1388902E-04  0.3127548E+01  0.5832465E+03  0.1570796E+01  0.3055334E-12 -0.1570796E+01
  0.4800000E+01  0.2668303E+04 -0.1570796E+01  0.7494710E-03  0.3139207E+01  0.7873858E+03  0.9114682E-08  0.2557172E-03 -0.2724249E-02  0.5836168E+03  0.1570796E+01  0.1710328E-11 -0.1420674E+01
  0.4840000E+01  0.2679658E+04 -0.1570796E+01  0.2825230E-02 -0.3141529E+01  0.7658903E+03  0.5260416E-08  0.2365657E-03  0.1013646E-02  0.5838164E+03  0.1570796E+01  0.3518442E-12 -0.2384758E+01
  0.4880000E+01  0.2690404E+04 -0.1570796E+01  0.7922951E-03 -0.9591872E-03  0.7447709E+03  0.4801851E-09  0.2829027E-03  0.1800353E-02  0.5838453E+03  0.1570796E+01  0.7212971E-12  0.2545393E+01
  0.4920000E+01  0.2700531E+04 -0.1570796E+01  0.3004211E-02  0.1244983E-02  0.7240296E+03  0.1005633E-07  0.6771316E-04 -0.1836974E-01  0.5837050E+03  0.1570796E+01  0.4170468E-12 -0.1973451E+01
  0.4960000E+01  0.2710050E+04 -0.1570796E+01  0.6521405E-03  0.3131104E+01  0.7036659E+03 -0.2856177E-08  0.3209137E-04 -0.3596567E-02  0.5833962E+03  0.1570796E+01  0.1400220E-11 -0.1545421E+01
  0.5000000E+01  0.2718942E+04 -0.1570796E+01  0.2243504E-04 -0.1809822E+00  0.6836790E+03  0.1074521E-07  0.1833298E-03 -0.5201526E-02  0.5829207E+03  0.1570796E+01  0.9895694E-12 -0.9588939E+00
  0.5040000E+01  0.2727217E+04 -0.1570796E+01  0.9886103E-04  0.3088209E+01  0.6640690E+03 -0.4184906E-08  0.7871649E-04  0.2253041E-03  0.5822789E+03  0.1570796E+01  0.5598428E-12  0.1989021E+01
  0.5080000E+01  0.2734865E+04 -0.1570796E+01  0.2259196E-02  0.3140749E+01  0.6448353E+03 -0.1461611E-08  0.9200213E-04  0.3129761E+01  0.5814733E+03  0.1570796E+01  0.9241427E-12  0.1540037E+01
  0.5120000E+01  0.2741887E+04 -0.1570796E+01  0.9237901E-03 -0.3137560E+01  0.6259758E+03 -0.1121796E-07  0.3152688E-03 -0.3139275E+01  0.5805032E+03  0.1570796E+01  0.3323305E-11  0.1485169E+01
  0.5160000E+01  0.2748289E+04 -0.1570796E+01  0.1596389E-03 -0.5880638E-02  0.6074915E+03  0.2014445E-08  0.3463699E-04  0.5150038E-02  0.5793716E+03  0.1570796E+01  0.8895700E-12 -0.2116695E+01
  0.5200000E+01  0.2754062E+04 -0.1570796E+01  0.8201451E-03  0.3141047E+01  0.5893790E+03 -0.1527714E-07  0.4126161E-03 -0.3141086E+01  0.5780809E+03  0.1570796E+01  0.9897225E-12  0.1506138E+01
  0.5240000E+01  0.2759200E+04 -0.1570796E+01  0.2183227E-03 -0.3134290E+01  0.5716378E+03 -0.1420678E-07  0.3973870E-03  0.3141388E+01  0.5766317E+03  0.1570796E+01  0.6827129E-12 -0.1612439E+01
  0.5280000E+01  0.2763713E+04 -0.1570796E+01  0.1516950E-02 -0.3134156E+01  0.5542651E+03 -0.1560647E-07  0.5493805E-03  0.3139672E+01  0.5750259E+03  0.1570796E+01  0.4389291E-12  0.5070985E+00
  0.5320000E+01  0.2767600E+04 -0.1570796E+01  0.1858505E-04 -0.2814264E+01  0.5372602E+03  0.6087935E-08  0.1848131E-03 -0.3139341E+01  0.5732656E+03  0.1570796E+01  0.1594151E-11 -0.1768192E+01
  0.5360000E+01  0.2770851E+04 -0.1570796E+01  0.5176514E-03  0.3141564E+01  0.5206202E+03 -0.6987331E-08  0.3118608E-03  0.3140074E+01  0.5713531E+03  0.1570796E+01  0.1095481E-11  0.7670516E+00
  0.5400000E+01  0.2773478E+04 -0.1570796E+01  0.1792462E-03 -0.1330118E-02  0.5043435E+03  0.1082110E-08  0.1141458E-03  0.3139930E+01  0.5692890E+03  0.1570796E+01  0.1198545E-11  0.1853168E+01
  0.5440000E+01  0.2775472E+04 -0.1570796E+01  0.2557520E-03 -0.1782976E-01  0.4884285E+03 -0.5327526E-08  0.9013810E-04 -0.3138865E+01  0.5670779E+03  0.1570796E+01  0.1827093E-11  0.1603858E+01
  0.5480000E+01  0.2776843E+04 -0.1570796E+01  0.8214883E-03 -0.3139289E+01  0.4728690E+03  0.2284637E-09  0.2737565E-03 -0.3140562E+01  0.5647194E+03  0.1570796E+01  0.7149786E-12  0.3091882E+01
  0.5520000E+01  0.2777583E+04 -0.1570796E+01  0.5813489E-03  0.2896425E-02  0.4576644E+03  0.1550629E-08  0.1040672E-05  0.1077109E+00  0.5622178E+03  0.1570796E+01  0.1063947E-11  0.1762298E+01
  0.5560000E+01  0.2777700E+04 -0.1570796E+01  0.7910061E-03  0.4445838E-02  0.4428106E+03 -0.4988808E-08  0.2448907E-03 -0.3141459E+01  0.5595760E+03  0.1570796E+01  0.7637591E-12 -0.1355155E+01
  0.5600000E+01  0.2777189E+04 -0.1570796E+01  0.9186270E-03 -0.3140960E+01  0.4283065E+03 -0.1524711E-07  0.4714234E-03  0.3141425E+01  0.5567927E+03  0.1570796E+01  0.7408835E-12 -0.1642787E+01
  0.5640000E+01  0.2776054E+04 -0.1570796E+01  0.1697458E-02  0.8778513E-04  0.4141469E+03  0.1475196E-08  0.2646815E-03  0.1438512E-02  0.5538750E+03  0.1570796E+01  0.4067508E-12  0.2670133E+01
  0.5680000E+01  0.2774297E+04 -0.1570796E+01  0.2933965E-03  0.7110388E-03  0.4003288E+03 -0.1312086E-07  0.6312990E-04 -0.1269751E-02  0.5508222E+03  0.1570796E+01  0.7371175E-12  0.1267336E+01
  0.5720000E+01  0.2771923E+04 -0.1570796E+01  0.4176263E-03  0.1316652E-01  0.3868488E+03 -0.3996382E-09  0.2912971E-03 -0.3141453E+01  0.5476387E+03  0.1570796E+01  0.8316689E-13 -0.3487710E+00
  0.5760000E+01  0.2768933E+04 -0.1570796E+01  0.1073383E-02  0.3141121E+01  0.3737034E+03  0.1407064E-07  0.3932547E-03  0.1524427E-02  0.5443264E+03  0.1570796E+01  0.1148054E-11 -0.1710505E+01
  0.5800000E+01  0.2765324E+04 -0.1570796E+01  0.9509023E-04  0.1896250E-01  0.3608881E+03  0.7716117E-08  0.3593610E-03  0.3140342E+01  0.5408879E+03  0.1570796E+01  0.2025050E-11  0.1572551E+01
  0.5840000E+01  0.2761103E+04 -0.1570796E+01  0.4949832E-03 -0.3140960E+01  0.3483992E+03 -0.8607535E-09  0.1125211E-03 -0.3139739E+01  0.5373262E+03  0.1570796E+01  0.1724530E-12 -0.4121376E-01
  0.5880000E+01  0.2756276E+04 -0.1570796E+01  0.1153196E-02  0.4147852E-02  0.3362332E+03 -0.1329538E-08  0.1036992E-03 -0.4089908E-02  0.5336445E+03  0.1570796E+01  0.2690932E-12 -0.2309500E+01
  0.5920000E+01  0.2750840E+04 -0.1570796E+01  0.4380114E-03  0.5511273E-02  0.3243853E+03  0.1470546E-07  0.1162497E-03 -0.3138602E+01  0.5298453E+03  0.1570796E+01  0.8058182E-12 -0.1364322E+01
  0.5960000E+01  0.2744800E+04 -0.1570796E+01  0.1339327E-02 -0.3137609E+01  0.3128508E+03  0.1056201E-07  0.1341922E-03  0.3141015E+01  0.5259312E+03  0.1570796E+01  0.5827777E-12 -0.1219161E+01
  0.6000000E+01  0.2738157E+04 -0.1570796E+01  0.5260171E-03  0.4815827E-02  0.3016266E+03 -0.1482080E-09  0.8973329E-04 -0.3133677E+01  0.5219059E+03  0.1570796E+01  0.1539190E-12  0.3290497E+00
  0.6039999E+01  0.2730927E+04 -0.1570796E+01  0.4004260E-03  0.1015940E-01  0.2907069E+03 -0.5151465E-08  0.1097689E-04 -0.3121253E+01  0.5177722E+03  0.1570796E+01  0.1379699E-11  0.1528296E+01