VARIABLES="X" "Y" "Z" "NX" "NY" "NZ" "A"
 ZONE N=        8697 , E=        2184  , F=FEPOINT,ET=QUADRILATERAL
   0.0000000E+00   0.0000000E+00  -0.1200000E+03   0.0000000E+00   0.0000000E+00   0.0000000E+00   0.0000000E+00
  -0.1044444E+01   0.0000000E+00  -0.1200000E+03   0.0000000E+00   0.0000000E+00   0.0000000E+00   0.0000000E+00
  -0.1041058E+01   0.8404290E-01  -0.1200000E+03   0.0000000E+00   0.0000000E+00   0.0000000E+00   0.0000000E+00
   0.0000000E+00   0.0000000E+00  -0.1200000E+03   0.0000000E+00   0.0000000E+00   0.0000000E+00   0.0000000E+00
  -0.1030919E+01   0.1675407E+00  -0.1200000E+03   0.0000000E+00   0.0000000E+00   0.0000000E+00   0.0000000E+00
  -0.1041058E+01   0.8404290E-01  -0.1200000E+03   0.0000000E+00   0.0000000E+00   0.0000000E+00   0.0000000E+00
   0.0000000E+00   0.0000000E+00  -0.1200000E+03   0.0000000E+00   0.0000000E+00   0.0000000E+00   0.0000000E+00
  -0.1030919E+01   0.1675407E+00  -0.1200000E+03   0.0000000E+00   0.0000000E+00   0.0000000E+00   0.0000000E+00
  -0.1014095E+01   0.2499519E+00  -0.1200000E+03   0.0000000E+00   0.0000000E+00   0.0000000E+00   0.0000000E+00
   0.0000000E+00   0.0000000E+00  -0.1200000E+03   0.0000000E+00   0.0000000E+00   0.0000000E+00   0.0000000E+00
  -0.9906937E+00   0.3307421E+00  -0.1200000E+03   0.0000000E+00   0.0000000E+00   0.0000000E+00   0.0000000E+00
  -0.1014095E+01   0.2499519E+00  -0.1200000E+03   0.0000000E+00   0.0000000E+00   0.0000000E+00   0.0000000E+00
   0.0000000E+00   0.0000000E+00  -0.1200000E+03   0.0000000E+00   0.0000000E+00   0.0000000E+00   0.0000000E+00
  -0.9608674E+00   0.4093873E+00  -0.1200000E+03   0.0000000E+00   0.0000000E+00   0.0000000E+00   0.0000000E+00
  -0.9906936E+00   0.3307421E+00  -0.1200000E+03   0.0000000E+00   0.0000000E+00   0.0000000E+00   0.0000000E+00
   0.0000000E+00   0.0000000E+00  -0.1200000E+03   0.0000000E+00   0.0000000E+00   0.0000000E+00   0.0000000E+00
  -0.9248096E+00   0.4853775E+00  -0.1200000E+03   0.0000000E+00   0.0000000E+00   0.0000000E+00   0.0000000E+00
  -0.9608673E+00   0.4093873E+00  -0.1200000E+03   0.0000000E+00   0.0000000E+00   0.0000000E+00   0.0000000E+00
   0.0000000E+00   0.0000000E+00  -0.1200000E+03   0.0000000E+00   0.0000000E+00   0.0000000E+00   0.0000000E+00
  -0.9248096E+00   0.4853775E+00  -0.1200000E+03   0.0000000E+00   0.0000000E+00   0.0000000E+00   0.0000000E+00
  -0.8827541E+00   0.5582199E+00  -0.1200000E+03   0.0000000E+00   0.0000000E+00   0.0000000E+00   0.0000000E+00
   0.0000000E+00   0.0000000E+00  -0.1200000E+03   0.0000000E+00   0.0000000E+00   0.0000000E+00   0.0000000E+00
  -0.8349736E+00   0.6274419E+00  -0.1200000E+03   0.0000000E+00   0.0000000E+00   0.0000000E+00   0.0000000E+00
  -0.8827541E+00   0.5582199E+00  -0.1200000E+03   0.0000000E+00   0.0000000E+00   0.0000000E+00   0.0000000E+00
   0.0000000E+00   0.0000000E+00  -0.1200000E+03   0.0000000E+00   0.0000000E+00   0.0000000E+00   0.0000000E+00
  -0.7817779E+00   0.6925948E+00  -0.1200000E+03   0.0000000E+00   0.0000000E+00   0.0000000E+00   0.0000000E+00
  -0.8349736E+00   0.6274419E+00  -0.1200000E+03   0.0000000E+00   0.0000000E+00   0.0000000E+00   0.0000000E+00
   0.0000000E+00   0.0000000E+00  -0.1200000E+03   0.0000000E+00   0.0000000E+00   0.0000000E+00   0.0000000E+00
  -0.7235121E+00   0.7532559E+00  -0.1200000E+03   0.0000000E+00   0.0000000E+00   0.0000000E+00   0.0000000E+00
  -0.7817779E+00   0.6925948E+00  -0.1200000E+03   0.0000000E+00   0.0000000E+00   0.0000000E+00   0.0000000E+00
   0.0000000E+00   0.0000000E+00  -0.1200000E+03   0.0000000E+00   0.0000000E+00   0.0000000E+00   0.0000000E+00
  -0.6605541E+00   0.8090318E+00  -0.1200000E+03   0.0000000E+00   0.0000000E+00   0.0000000E+00   0.0000000E+00
  -0.7235121E+00   0.7532559E+00  -0.1200000E+03   0.0000000E+00   0.0000000E+00   0.0000000E+00   0.0000000E+00
   0.0000000E+00   0.0000000E+00  -0.1200000E+03   0.0000000E+00   0.0000000E+00   0.0000000E+00   0.0000000E+00
  -0.5933121E+00   0.8595609E+00  -0.1200000E+03   0.0000000E+00   0.0000000E+00   0.0000000E+00   0.0000000E+00
  -0.6605541E+00   0.8090318E+00  -0.1200000E+03   0.0000000E+00   0.0000000E+00   0.0000000E+00   0.0000000E+00
   0.0000000E+00   0.0000000E+00  -0.1200000E+03   0.0000000E+00   0.0000000E+00   0.0000000E+00   0.0000000E+00
  -0.5222222E+00   0.9045154E+00  -0.1200000E+03   0.0000000E+00   0.0000000E+00   0.0000000E+00   0.0000000E+00
  -0.5933121E+00   0.8595609E+00  -0.1200000E+03   0.0000000E+00   0.0000000E+00   0.0000000E+00   0.0000000E+00
   0.0000000E+00   0.0000000E+00  -0.1200000E+03   0.0000000E+00   0.0000000E+00   0.0000000E+00   0.0000000E+00
  -0.4477456E+00   0.9436038E+00  -0.1200000E+03   0.0000000E+00   0.0000000E+00   0.0000000E+00   0.0000000E+00
  -0.5222222E+00   0.9045154E+00  -0.1200000E+03   0.0000000E+00   0.0000000E+00   0.0000000E+00   0.0000000E+00
   0.0000000E+00   0.0000000E+00  -0.1200000E+03   0.0000000E+00   0.0000000E+00   0.0000000E+00   0.0000000E+00
  -0.3703651E+00   0.9765725E+00  -0.1200000E+03   0.0000000E+00   0.0000000E+00   0.0000000E+00   0.0000000E+00
  -0.4477456E+00   0.9436038E+00  -0.1200000E+03   0.0000000E+00   0.0000000E+00   0.0000000E+00   0.0000000E+00
   0.0000000E+00   0.0000000E+00  -0.1200000E+03   0.0000000E+00   0.0000000E+00   0.0000000E+00   0.0000000E+00
  -0.3703651E+00   0.9765725E+00  -0.1200000E+03   0.0000000E+00   0.0000000E+00   0.0000000E+00   0.0000000E+00
  -0.2905827E+00   0.1003208E+01  -0.1200000E+03   0.0000000E+00   0.0000000E+00   0.0000000E+00   0.0000000E+00
   0.0000000E+00   0.0000000E+00  -0.1200000E+03   0.0000000E+00   0.0000000E+00   0.0000000E+00   0.0000000E+00
  -0.2089157E+00   0.1023337E+01  -0.1200000E+03   0.0000000E+00   0.0000000E+00   0.0000000E+00   0.0000000E+00
  -0.2905827E+00   0.1003208E+01  -0.1200000E+03   0.0000000E+00   0.0000000E+00   0.0000000E+00   0.0000000E+00
   0.0000000E+00   0.0000000E+00  -0.1200000E+03   0.0000000E+00   0.0000000E+00   0.0000000E+00   0.0000000E+00
  -0.1258939E+00   0.1036829E+01  -0.1200000E+03   0.0000000E+00   0.0000000E+00   0.0000000E+00   0.0000000E+00
  -0.2089157E+00   0.1023337E+01  -0.1200000E+03   0.0000000E+00   0.0000000E+00   0.0000000E+00   0.0000000E+00
   0.0000000E+00   0.0000000E+00  -0.1200000E+03   0.0000000E+00   0.0000000E+00   0.0000000E+00   0.0000000E+00
  -0.4205550E-01   0.1043597E+01  -0.1200000E+03   0.0000000E+00   0.0000000E+00   0.0000000E+00   0.0000000E+00
  -0.1258939E+00   0.1036829E+01  -0.1200000E+03   0.0000000E+00   0.0000000E+00   0.0000000E+00   0.0000000E+00
   0.0000000E+00   0.0000000E+00  -0.1200000E+03   0.0000000E+00   0.0000000E+00   0.0000000E+00   0.0000000E+00
   0.4205550E-01   0.1043597E+01  -0.1200000E+03   0.0000000E+00   0.0000000E+00   0.0000000E+00   0.0000000E+00
  -0.4205550E-01   0.1043597E+01  -0.1200000E+03   0.0000000E+00   0.0000000E+00   0.0000000E+00   0.0000000E+00
   0.0000000E+00   0.0000000E+00  -0.1200000E+03   0.0000000E+00   0.0000000E+00   0.0000000E+00   0.0000000E+00
   0.4205550E-01   0.1043597E+01  -0.1200000E+03   0.0000000E+00   0.0000000E+00   0.0000000E+00   0.0000000E+00
   0.1258939E+00   0.1036829E+01  -0.1200000E+03   0.0000000E+00   0.0000000E+00   0.0000000E+00   0.0000000E+00
   0.0000000E+00   0.0000000E+00  -0.1200000E+03   0.0000000E+00   0.0000000E+00   0.0000000E+00   0.0000000E+00
   0.1258939E+00   0.1036829E+01  -0.1200000E+03   0.0000000E+00   0.0000000E+00   0.0000000E+00   0.0000000E+00
   0.2089157E+00   0.1023337E+01  -0.1200000E+03   0.0000000E+00   0.0000000E+00   0.0000000E+00   0.0000000E+00
   0.0000000E+00   0.0000000E+00  -0.1200000E+03   0.0000000E+00   0.0000000E+00   0.0000000E+00   0.0000000E+00
   0.2089157E+00   0.1023337E+01  -0.1200000E+03   0.0000000E+00   0.0000000E+00   0.0000000E+00   0.0000000E+00
   0.2905827E+00   0.1003208E+01  -0.1200000E+03   0.0000000E+00   0.0000000E+00   0.0000000E+00   0.0000000E+00
   0.0000000E+00   0.0000000E+00  -0.1200000E+03   0.0000000E+00   0.0000000E+00   0.0000000E+00   0.0000000E+00
   0.3703651E+00   0.9765725E+00  -0.1200000E+03   0.0000000E+00   0.0000000E+00   0.0000000E+00   0.0000000E+00
   0.2905827E+00   0.1003208E+01  -0.1200000E+03   0.0000000E+00   0.0000000E+00   0.0000000E+00   0.0000000E+00
   0.0000000E+00   0.0000000E+00  -0.1200000E+03   0.0000000E+00   0.0000000E+00   0.0000000E+00   0.0000000E+00
   0.4477456E+00   0.9436038E+00  -0.1200000E+03   0.0000000E+00   0.0000000E+00   0.0000000E+00   0.0000000E+00
   0.3703651E+00   0.9765726E+00  -0.1200000E+03   0.0000000E+00   0.0000000E+00   0.0000000E+00   0.0000000E+00
   0.0000000E+00   0.0000000E+00  -0.1200000E+03   0.0000000E+00   0.0000000E+00   0.0000000E+00   0.0000000E+00
   0.5222222E+00   0.9045154E+00  -0.1200000E+03   0.0000000E+00   0.0000000E+00   0.0000000E+00   0.0000000E+00
   0.4477456E+00   0.9436038E+00  -0.1200000E+03   0.0000000E+00   0.0000000E+00   0.0000000E+00   0.0000000E+00
   0.0000000E+00   0.0000000E+00  -0.1200000E+03   0.0000000E+00   0.0000000E+00   0.0000000E+00   0.0000000E+00
   0.5933121E+00   0.8595609E+00  -0.1200000E+03   0.0000000E+00   0.0000000E+00   0.0000000E+00   0.0000000E+00
   0.5222222E+00   0.9045154E+00  -0.1200000E+03   0.0000000E+00   0.0000000E+00   0.0000000E+00   0.0000000E+00
   0.0000000E+00   0.0000000E+00  -0.1200000E+03   0.0000000E+00   0.0000000E+00   0.0000000E+00   0.0000000E+00
   0.6605541E+00   0.8090318E+00  -0.1200000E+03   0.0000000E+00   0.0000000E+00   0.0000000E+00   0.0000000E+00
   0.5933121E+00   0.8595609E+00  -0.1200000E+03   0.0000000E+00   0.0000000E+00   0.0000000E+00   0.0000000E+00
   0.0000000E+00   0.0000000E+00  -0.1200000E+03   0.0000000E+00   0.0000000E+00   0.0000000E+00   0.0000000E+00
   0.7235121E+00   0.7532559E+00  -0.1200000E+03   0.0000000E+00   0.0000000E+00   0.0000000E+00   0.0000000E+00
   0.6605541E+00   0.8090318E+00  -0.1200000E+03   0.0000000E+00   0.0000000E+00   0.0000000E+00   0.0000000E+00
   0.0000000E+00   0.0000000E+00  -0.1200000E+03   0.0000000E+00   0.0000000E+00   0.0000000E+00   0.0000000E+00
   0.7817779E+00   0.6925948E+00  -0.1200000E+03   0.0000000E+00   0.0000000E+00   0.0000000E+00   0.0000000E+00
   0.7235121E+00   0.7532559E+00  -0.1200000E+03   0.0000000E+00   0.0000000E+00   0.0000000E+00   0.0000000E+00
   0.0000000E+00   0.0000000E+00  -0.1200000E+03   0.0000000E+00   0.0000000E+00   0.0000000E+00   0.0000000E+00
   0.8349736E+00   0.6274419E+00  -0.1200000E+03   0.0000000E+00   0.0000000E+00   0.0000000E+00   0.0000000E+00
   0.7817779E+00   0.6925948E+00  -0.1200000E+03   0.0000000E+00   0.0000000E+00   0.0000000E+00   0.0000000E+00
   0.0000000E+00   0.0000000E+00  -0.1200000E+03   0.0000000E+00   0.0000000E+00   0.0000000E+00   0.0000000E+00
   0.8827541E+00   0.5582199E+00  -0.1200000E+03   0.0000000E+00   0.0000000E+00   0.0000000E+00   0.0000000E+00
   0.8349736E+00   0.6274419E+00  -0.1200000E+03   0.0000000E+00   0.0000000E+00   0.0000000E+00   0.0000000E+00
   0.0000000E+00   0.0000000E+00  -0.1200000E+03   0.0000000E+00   0.0000000E+00   0.0000000E+00   0.0000000E+00
   0.9248096E+00   0.4853775E+00  -0.1200000E+03   0.0000000E+00   0.0000000E+00   0.0000000E+00   0.0000000E+00
   0.8827541E+00   0.5582199E+00  -0.1200000E+03   0.0000000E+00   0.0000000E+00   0.0000000E+00   0.0000000E+00
   0.0000000E+00   0.0000000E+00  -0.1200000E+03   0.0000000E+00   0.0000000E+00   0.0000000E+00   0.0000000E+00
   0.9248096E+00   0.4853775E+00  -0.1200000E+03   0.0000000E+00   0.0000000E+00   0.0000000E+00   0.0000000E+00
   0.9608673E+00   0.4093873E+00  -0.1200000E+03   0.0000000E+00   0.0000000E+00   0.0000000E+00   0.0000000E+00
   0.0000000E+00   0.0000000E+00  -0.1200000E+03   0.0000000E+00   0.0000000E+00   0.0000000E+00   0.0000000E+00
   0.9906936E+00   0.3307421E+00  -0.1200000E+03   0.0000000E+00   0.0000000E+00   0.0000000E+00   0.0000000E+00
   0.9608673E+00   0.4093873E+00  -0.1200000E+03   0.0000000E+00   0.0000000E+00   0.0000000E+00   0.0000000E+00
   0.0000000E+00   0.0000000E+00  -0.1200000E+03   0.0000000E+00   0.0000000E+00   0.0000000E+00   0.0000000E+00
   0.9906936E+00   0.3307421E+00  -0.1200000E+03   0.0000000E+00   0.0000000E+00   0.0000000E+00   0.0000000E+00
   0.1014095E+01   0.2499519E+00  -0.1200000E+03   0.0000000E+00   0.0000000E+00   0.0000000E+00   0.0000000E+00
   0.0000000E+00   0.0000000E+00  -0.1200000E+03   0.0000000E+00   0.0000000E+00   0.0000000E+00   0.0000000E+00
   0.1030919E+01   0.1675407E+00  -0.1200000E+03   0.0000000E+00   0.0000000E+00   0.0000000E+00   0.0000000E+00
   0.1014095E+01   0.2499519E+00  -0.1200000E+03   0.0000000E+00   0.0000000E+00   0.0000000E+00   0.0000000E+00
   0.0000000E+00   0.0000000E+00  -0.1200000E+03   0.0000000E+00   0.0000000E+00   0.0000000E+00   0.0000000E+00
   0.1030919E+01   0.1675407E+00  -0.1200000E+03   0.0000000E+00   0.0000000E+00   0.0000000E+00   0.0000000E+00
   0.1041058E+01   0.8404290E-01  -0.1200000E+03   0.0000000E+00   0.0000000E+00   0.0000000E+00   0.0000000E+00
   0.0000000E+00   0.0000000E+00  -0.1200000E+03   0.0000000E+00   0.0000000E+00   0.0000000E+00   0.0000000E+00
   0.1044444E+01   0.0000000E+00  -0.1200000E+03   0.0000000E+00   0.0000000E+00   0.0000000E+00   0.0000000E+00
   0.1041058E+01   0.8404290E-01  -0.1200000E+03   0.0000000E+00   0.0000000E+00   0.0000000E+00   0.0000000E+00
  -0.2088889E+01   0.0000000E+00  -0.1200000E+03   0.0000000E+00   0.0000000E+00   0.0000000E+00   0.0000000E+00
  -0.2082115E+01   0.1680857E+00  -0.1200000E+03   0.0000000E+00   0.0000000E+00   0.0000000E+00   0.0000000E+00
  -0.1044444E+01   0.0000000E+00  -0.1200000E+03   0.0000000E+00   0.0000000E+00   0.0000000E+00   0.0000000E+00
  -0.1041058E+01   0.8404290E-01  -0.1200000E+03   0.0000000E+00   0.0000000E+00   0.0000000E+00   0.0000000E+00
  -0.2082115E+01   0.1680857E+00  -0.1200000E+03   0.0000000E+00   0.0000000E+00   0.0000000E+00   0.0000000E+00
  -0.2061838E+01   0.3350813E+00  -0.1200000E+03   0.0000000E+00   0.0000000E+00   0.0000000E+00   0.0000000E+00
  -0.1041058E+01   0.8404290E-01  -0.1200000E+03   0.0000000E+00   0.0000000E+00   0.0000000E+00   0.0000000E+00
  -0.1030919E+01   0.1675407E+00  -0.1200000E+03   0.0000000E+00   0.0000000E+00   0.0000000E+00   0.0000000E+00
  -0.2061838E+01   0.3350813E+00  -0.1200000E+03   0.0000000E+00   0.0000000E+00   0.0000000E+00   0.0000000E+00
  -0.2028190E+01   0.4999038E+00  -0.1200000E+03   0.0000000E+00   0.0000000E+00   0.0000000E+00   0.0000000E+00
  -0.1030919E+01   0.1675407E+00  -0.1200000E+03   0.0000000E+00   0.0000000E+00   0.0000000E+00   0.0000000E+00
  -0.1014095E+01   0.2499519E+00  -0.1200000E+03   0.0000000E+00   0.0000000E+00   0.0000000E+00   0.0000000E+00
  -0.2028190E+01   0.4999038E+00  -0.1200000E+03   0.0000000E+00   0.0000000E+00   0.0000000E+00   0.0000000E+00
  -0.1981387E+01   0.6614843E+00  -0.1200000E+03   0.0000000E+00   0.0000000E+00   0.0000000E+00   0.0000000E+00
  -0.1014095E+01   0.2499519E+00  -0.1200000E+03   0.0000000E+00   0.0000000E+00   0.0000000E+00   0.0000000E+00
  -0.9906937E+00   0.3307421E+00  -0.1200000E+03   0.0000000E+00   0.0000000E+00   0.0000000E+00   0.0000000E+00
  -0.1981387E+01   0.6614843E+00  -0.1200000E+03   0.0000000E+00   0.0000000E+00   0.0000000E+00   0.0000000E+00
  -0.1921735E+01   0.8187747E+00  -0.1200000E+03   0.0000000E+00   0.0000000E+00   0.0000000E+00   0.0000000E+00
  -0.9906937E+00   0.3307421E+00  -0.1200000E+03   0.0000000E+00   0.0000000E+00   0.0000000E+00   0.0000000E+00
  -0.9608674E+00   0.4093873E+00  -0.1200000E+03   0.0000000E+00   0.0000000E+00   0.0000000E+00   0.0000000E+00
  -0.1921735E+01   0.8187747E+00  -0.1200000E+03   0.0000000E+00   0.0000000E+00   0.0000000E+00   0.0000000E+00
  -0.1849619E+01   0.9707551E+00  -0.1200000E+03   0.0000000E+00   0.0000000E+00   0.0000000E+00   0.0000000E+00
  -0.9608674E+00   0.4093873E+00  -0.1200000E+03   0.0000000E+00   0.0000000E+00   0.0000000E+00   0.0000000E+00
  -0.9248096E+00   0.4853775E+00  -0.1200000E+03   0.0000000E+00   0.0000000E+00   0.0000000E+00   0.0000000E+00
  -0.1849619E+01   0.9707551E+00  -0.1200000E+03   0.0000000E+00   0.0000000E+00   0.0000000E+00   0.0000000E+00
  -0.1765508E+01   0.1116440E+01  -0.1200000E+03   0.0000000E+00   0.0000000E+00   0.0000000E+00   0.0000000E+00
  -0.9248096E+00   0.4853775E+00  -0.1200000E+03   0.0000000E+00   0.0000000E+00   0.0000000E+00   0.0000000E+00
  -0.8827541E+00   0.5582199E+00  -0.1200000E+03   0.0000000E+00   0.0000000E+00   0.0000000E+00   0.0000000E+00
  -0.1765508E+01   0.1116440E+01  -0.1200000E+03   0.0000000E+00   0.0000000E+00   0.0000000E+00   0.0000000E+00
  -0.1669947E+01   0.1254884E+01  -0.1200000E+03   0.0000000E+00   0.0000000E+00   0.0000000E+00   0.0000000E+00
  -0.8827541E+00   0.5582199E+00  -0.1200000E+03   0.0000000E+00   0.0000000E+00   0.0000000E+00   0.0000000E+00
  -0.8349736E+00   0.6274419E+00  -0.1200000E+03   0.0000000E+00   0.0000000E+00   0.0000000E+00   0.0000000E+00
  -0.1669947E+01   0.1254884E+01  -0.1200000E+03   0.0000000E+00   0.0000000E+00   0.0000000E+00   0.0000000E+00
  -0.1563556E+01   0.1385190E+01  -0.1200000E+03   0.0000000E+00   0.0000000E+00   0.0000000E+00   0.0000000E+00
  -0.8349736E+00   0.6274419E+00  -0.1200000E+03   0.0000000E+00   0.0000000E+00   0.0000000E+00   0.0000000E+00
  -0.7817779E+00   0.6925948E+00  -0.1200000E+03   0.0000000E+00   0.0000000E+00   0.0000000E+00   0.0000000E+00
  -0.1563556E+01   0.1385190E+01  -0.1200000E+03   0.0000000E+00   0.0000000E+00   0.0000000E+00   0.0000000E+00
  -0.1447024E+01   0.1506512E+01  -0.1200000E+03   0.0000000E+00   0.0000000E+00   0.0000000E+00   0.0000000E+00
  -0.7817779E+00   0.6925948E+00  -0.1200000E+03   0.0000000E+00   0.0000000E+00   0.0000000E+00   0.0000000E+00
  -0.7235121E+00   0.7532559E+00  -0.1200000E+03   0.0000000E+00   0.0000000E+00   0.0000000E+00   0.0000000E+00
  -0.1447024E+01   0.1506512E+01  -0.1200000E+03   0.0000000E+00   0.0000000E+00   0.0000000E+00   0.0000000E+00
  -0.1321108E+01   0.1618064E+01  -0.1200000E+03   0.0000000E+00   0.0000000E+00   0.0000000E+00   0.0000000E+00
  -0.7235121E+00   0.7532559E+00  -0.1200000E+03   0.0000000E+00   0.0000000E+00   0.0000000E+00   0.0000000E+00
  -0.6605541E+00   0.8090318E+00  -0.1200000E+03   0.0000000E+00   0.0000000E+00   0.0000000E+00   0.0000000E+00
  -0.1321108E+01   0.1618064E+01  -0.1200000E+03   0.0000000E+00   0.0000000E+00   0.0000000E+00   0.0000000E+00
  -0.1186624E+01   0.1719122E+01  -0.1200000E+03   0.0000000E+00   0.0000000E+00   0.0000000E+00   0.0000000E+00
  -0.6605541E+00   0.8090318E+00  -0.1200000E+03   0.0000000E+00   0.0000000E+00   0.0000000E+00   0.0000000E+00
  -0.5933121E+00   0.8595609E+00  -0.1200000E+03   0.0000000E+00   0.0000000E+00   0.0000000E+00   0.0000000E+00
  -0.1186624E+01   0.1719122E+01  -0.1200000E+03   0.0000000E+00   0.0000000E+00   0.0000000E+00   0.0000000E+00
  -0.1044444E+01   0.1809031E+01  -0.1200000E+03   0.0000000E+00   0.0000000E+00   0.0000000E+00   0.0000000E+00
  -0.5933121E+00   0.8595609E+00  -0.1200000E+03   0.0000000E+00   0.0000000E+00   0.0000000E+00   0.0000000E+00
  -0.5222222E+00   0.9045154E+00  -0.1200000E+03   0.0000000E+00   0.0000000E+00   0.0000000E+00   0.0000000E+00
  -0.1044444E+01   0.1809031E+01  -0.1200000E+03   0.0000000E+00   0.0000000E+00   0.0000000E+00   0.0000000E+00
  -0.8954911E+00   0.1887208E+01  -0.1200000E+03   0.0000000E+00   0.0000000E+00   0.0000000E+00   0.0000000E+00
  -0.5222222E+00   0.9045154E+00  -0.1200000E+03   0.0000000E+00   0.0000000E+00   0.0000000E+00   0.0000000E+00
  -0.4477456E+00   0.9436038E+00  -0.1200000E+03   0.0000000E+00   0.0000000E+00   0.0000000E+00   0.0000000E+00
  -0.8954911E+00   0.1887208E+01  -0.1200000E+03   0.0000000E+00   0.0000000E+00   0.0000000E+00   0.0000000E+00
  -0.7407302E+00   0.1953145E+01  -0.1200000E+03   0.0000000E+00   0.0000000E+00   0.0000000E+00   0.0000000E+00
  -0.4477456E+00   0.9436038E+00  -0.1200000E+03   0.0000000E+00   0.0000000E+00   0.0000000E+00   0.0000000E+00
  -0.3703651E+00   0.9765725E+00  -0.1200000E+03   0.0000000E+00   0.0000000E+00   0.0000000E+00   0.0000000E+00
  -0.7407302E+00   0.1953145E+01  -0.1200000E+03   0.0000000E+00   0.0000000E+00   0.0000000E+00   0.0000000E+00
  -0.5811654E+00   0.2006416E+01  -0.1200000E+03   0.0000000E+00   0.0000000E+00   0.0000000E+00   0.0000000E+00
  -0.3703651E+00   0.9765725E+00  -0.1200000E+03   0.0000000E+00   0.0000000E+00   0.0000000E+00   0.0000000E+00
  -0.2905827E+00   0.1003208E+01  -0.1200000E+03   0.0000000E+00   0.0000000E+00   0.0000000E+00   0.0000000E+00
  -0.5811654E+00   0.2006416E+01  -0.1200000E+03   0.0000000E+00   0.0000000E+00   0.0000000E+00   0.0000000E+00
  -0.4178314E+00   0.2046674E+01  -0.1200000E+03   0.0000000E+00   0.0000000E+00   0.0000000E+00   0.0000000E+00
  -0.2905827E+00   0.1003208E+01  -0.1200000E+03   0.0000000E+00   0.0000000E+00   0.0000000E+00   0.0000000E+00
  -0.2089157E+00   0.1023337E+01  -0.1200000E+03   0.0000000E+00   0.0000000E+00   0.0000000E+00   0.0000000E+00
  -0.4178314E+00   0.2046674E+01  -0.1200000E+03   0.0000000E+00   0.0000000E+00   0.0000000E+00   0.0000000E+00
  -0.2517877E+00   0.2073659E+01  -0.1200000E+03   0.0000000E+00   0.0000000E+00   0.0000000E+00   0.0000000E+00
  -0.2089157E+00   0.1023337E+01  -0.1200000E+03   0.0000000E+00   0.0000000E+00   0.0000000E+00   0.0000000E+00
  -0.1258939E+00   0.1036829E+01  -0.1200000E+03   0.0000000E+00   0.0000000E+00   0.0000000E+00   0.0000000E+00
  -0.2517877E+00   0.2073659E+01  -0.1200000E+03   0.0000000E+00   0.0000000E+00   0.0000000E+00   0.0000000E+00
  -0.8411110E-01   0.2087195E+01  -0.1200000E+03   0.0000000E+00   0.0000000E+00   0.0000000E+00   0.0000000E+00
  -0.1258939E+00   0.1036829E+01  -0.1200000E+03   0.0000000E+00   0.0000000E+00   0.0000000E+00   0.0000000E+00
  -0.4205550E-01   0.1043597E+01  -0.1200000E+03   0.0000000E+00   0.0000000E+00   0.0000000E+00   0.0000000E+00
  -0.8411110E-01   0.2087195E+01  -0.1200000E+03   0.0000000E+00   0.0000000E+00   0.0000000E+00   0.0000000E+00
   0.8411110E-01   0.2087195E+01  -0.1200000E+03   0.0000000E+00   0.0000000E+00   0.0000000E+00   0.0000000E+00
  -0.4205550E-01   0.1043597E+01  -0.1200000E+03   0.0000000E+00   0.0000000E+00   0.0000000E+00   0.0000000E+00
   0.4205550E-01   0.1043597E+01  -0.1200000E+03   0.0000000E+00   0.0000000E+00   0.0000000E+00   0.0000000E+00
   0.8411110E-01   0.2087195E+01  -0.1200000E+03   0.0000000E+00   0.0000000E+00   0.0000000E+00   0.0000000E+00
   0.2517877E+00   0.2073659E+01  -0.1200000E+03   0.0000000E+00   0.0000000E+00   0.0000000E+00   0.0000000E+00
   0.4205550E-01   0.1043597E+01  -0.1200000E+03   0.0000000E+00   0.0000000E+00   0.0000000E+00   0.0000000E+00
   0.1258939E+00   0.1036829E+01  -0.1200000E+03   0.0000000E+00   0.0000000E+00   0.0000000E+00   0.0000000E+00
   0.2517877E+00   0.2073659E+01  -0.1200000E+03   0.0000000E+00   0.0000000E+00   0.0000000E+00   0.0000000E+00
   0.4178314E+00   0.2046674E+01  -0.1200000E+03   0.0000000E+00   0.0000000E+00   0.0000000E+00   0.0000000E+00
   0.1258939E+00   0.1036829E+01  -0.1200000E+03   0.0000000E+00   0.0000000E+00   0.0000000E+00   0.0000000E+00
   0.2089157E+00   0.1023337E+01  -0.1200000E+03   0.0000000E+00   0.0000000E+00   0.0000000E+00   0.0000000E+00
   0.4178314E+00   0.2046674E+01  -0.1200000E+03   0.0000000E+00   0.0000000E+00   0.0000000E+00   0.0000000E+00
   0.5811654E+00   0.2006416E+01  -0.1200000E+03   0.0000000E+00   0.0000000E+00   0.0000000E+00   0.0000000E+00
   0.2089157E+00   0.1023337E+01  -0.1200000E+03   0.0000000E+00   0.0000000E+00   0.0000000E+00   0.0000000E+00
   0.2905827E+00   0.1003208E+01  -0.1200000E+03   0.0000000E+00   0.0000000E+00   0.0000000E+00   0.0000000E+00
   0.5811654E+00   0.2006416E+01  -0.1200000E+03   0.0000000E+00   0.0000000E+00   0.0000000E+00   0.0000000E+00
   0.7407302E+00   0.1953145E+01  -0.1200000E+03   0.0000000E+00   0.0000000E+00   0.0000000E+00   0.0000000E+00
   0.2905827E+00   0.1003208E+01  -0.1200000E+03   0.0000000E+00   0.0000000E+00   0.0000000E+00   0.0000000E+00
   0.3703651E+00   0.9765725E+00  -0.1200000E+03   0.0000000E+00   0.0000000E+00   0.0000000E+00   0.0000000E+00
   0.7407302E+00   0.1953145E+01  -0.1200000E+03   0.0000000E+00   0.0000000E+00   0.0000000E+00   0.0000000E+00
   0.8954911E+00   0.1887208E+01  -0.1200000E+03   0.0000000E+00   0.0000000E+00   0.0000000E+00   0.0000000E+00
   0.3703651E+00   0.9765725E+00  -0.1200000E+03   0.0000000E+00   0.0000000E+00   0.0000000E+00   0.0000000E+00
   0.4477456E+00   0.9436038E+00  -0.1200000E+03   0.0000000E+00   0.0000000E+00   0.0000000E+00   0.0000000E+00
   0.8954911E+00   0.1887208E+01  -0.1200000E+03   0.0000000E+00   0.0000000E+00   0.0000000E+00   0.0000000E+00
   0.1044444E+01   0.1809031E+01  -0.1200000E+03   0.0000000E+00   0.0000000E+00   0.0000000E+00   0.0000000E+00
   0.4477456E+00   0.9436038E+00  -0.1200000E+03   0.0000000E+00   0.0000000E+00   0.0000000E+00   0.0000000E+00
   0.5222222E+00   0.9045154E+00  -0.1200000E+03   0.0000000E+00   0.0000000E+00   0.0000000E+00   0.0000000E+00
   0.1044444E+01   0.1809031E+01  -0.1200000E+03   0.0000000E+00   0.0000000E+00   0.0000000E+00   0.0000000E+00
   0.1186624E+01   0.1719122E+01  -0.1200000E+03   0.0000000E+00   0.0000000E+00   0.0000000E+00   0.0000000E+00
   0.5222222E+00   0.9045154E+00  -0.1200000E+03   0.0000000E+00   0.0000000E+00   0.0000000E+00   0.0000000E+00
   0.5933121E+00   0.8595609E+00  -0.1200000E+03   0.0000000E+00   0.0000000E+00   0.0000000E+00   0.0000000E+00
   0.1186624E+01   0.1719122E+01  -0.1200000E+03   0.0000000E+00   0.0000000E+00   0.0000000E+00   0.0000000E+00
   0.1321108E+01   0.1618064E+01  -0.1200000E+03   0.0000000E+00   0.0000000E+00   0.0000000E+00   0.0000000E+00
   0.5933121E+00   0.8595609E+00  -0.1200000E+03   0.0000000E+00   0.0000000E+00   0.0000000E+00   0.0000000E+00
   0.6605541E+00   0.8090318E+00  -0.1200000E+03   0.0000000E+00   0.0000000E+00   0.0000000E+00   0.0000000E+00
   0.1321108E+01   0.1618064E+01  -0.1200000E+03   0.0000000E+00   0.0000000E+00   0.0000000E+00   0.0000000E+00
   0.1447024E+01   0.1506512E+01  -0.1200000E+03   0.0000000E+00   0.0000000E+00   0.0000000E+00   0.0000000E+00
   0.6605541E+00   0.8090318E+00  -0.1200000E+03   0.0000000E+00   0.0000000E+00   0.0000000E+00   0.0000000E+00
   0.7235121E+00   0.7532559E+00  -0.1200000E+03   0.0000000E+00   0.0000000E+00   0.0000000E+00   0.0000000E+00
   0.1447024E+01   0.1506512E+01  -0.1200000E+03   0.0000000E+00   0.0000000E+00   0.0000000E+00   0.0000000E+00
   0.1563556E+01   0.1385190E+01  -0.1200000E+03   0.0000000E+00   0.0000000E+00   0.0000000E+00   0.0000000E+00
   0.7235121E+00   0.7532559E+00  -0.1200000E+03   0.0000000E+00   0.0000000E+00   0.0000000E+00   0.0000000E+00
   0.7817779E+00   0.6925948E+00  -0.1200000E+03   0.0000000E+00   0.0000000E+00   0.0000000E+00   0.0000000E+00
   0.1563556E+01   0.1385190E+01  -0.1200000E+03   0.0000000E+00   0.0000000E+00   0.0000000E+00   0.0000000E+00
   0.1669947E+01   0.1254884E+01  -0.1200000E+03   0.0000000E+00   0.0000000E+00   0.0000000E+00   0.0000000E+00
   0.7817779E+00   0.6925948E+00  -0.1200000E+03   0.0000000E+00   0.0000000E+00   0.0000000E+00   0.0000000E+00
   0.8349736E+00   0.6274419E+00  -0.1200000E+03   0.0000000E+00   0.0000000E+00   0.0000000E+00   0.0000000E+00
   0.1669947E+01   0.1254884E+01  -0.1200000E+03   0.0000000E+00   0.0000000E+00   0.0000000E+00   0.0000000E+00
   0.1765508E+01   0.1116440E+01  -0.1200000E+03   0.0000000E+00   0.0000000E+00   0.0000000E+00   0.0000000E+00
   0.8349736E+00   0.6274419E+00  -0.1200000E+03   0.0000000E+00   0.0000000E+00   0.0000000E+00   0.0000000E+00
   0.8827541E+00   0.5582199E+00  -0.1200000E+03   0.0000000E+00   0.0000000E+00   0.0000000E+00   0.0000000E+00
   0.1765508E+01   0.1116440E+01  -0.1200000E+03   0.0000000E+00   0.0000000E+00   0.0000000E+00   0.0000000E+00
   0.1849619E+01   0.9707551E+00  -0.1200000E+03   0.0000000E+00   0.0000000E+00   0.0000000E+00   0.0000000E+00
   0.8827541E+00   0.5582199E+00  -0.1200000E+03   0.0000000E+00   0.0000000E+00   0.0000000E+00   0.0000000E+00
   0.9248096E+00   0.4853775E+00  -0.1200000E+03   0.0000000E+00   0.0000000E+00   0.0000000E+00   0.0000000E+00
   0.1849619E+01   0.9707551E+00  -0.1200000E+03   0.0000000E+00   0.0000000E+00   0.0000000E+00   0.0000000E+00
   0.1921735E+01   0.8187747E+00  -0.1200000E+03   0.0000000E+00   0.0000000E+00   0.0000000E+00   0.0000000E+00
   0.9248096E+00   0.4853775E+00  -0.1200000E+03   0.0000000E+00   0.0000000E+00   0.0000000E+00   0.0000000E+00
   0.9608674E+00   0.4093873E+00  -0.1200000E+03   0.0000000E+00   0.0000000E+00   0.0000000E+00   0.0000000E+00
   0.1921735E+01   0.8187747E+00  -0.1200000E+03   0.0000000E+00   0.0000000E+00   0.0000000E+00   0.0000000E+00
   0.1981387E+01   0.6614843E+00  -0.1200000E+03   0.0000000E+00   0.0000000E+00   0.0000000E+00   0.0000000E+00
   0.9608674E+00   0.4093873E+00  -0.1200000E+03   0.0000000E+00   0.0000000E+00   0.0000000E+00   0.0000000E+00
   0.9906936E+00   0.3307421E+00  -0.1200000E+03   0.0000000E+00   0.0000000E+00   0.0000000E+00   0.0000000E+00
   0.1981387E+01   0.6614843E+00  -0.1200000E+03   0.0000000E+00   0.0000000E+00   0.0000000E+00   0.0000000E+00
   0.2028190E+01   0.4999038E+00  -0.1200000E+03   0.0000000E+00   0.0000000E+00   0.0000000E+00   0.0000000E+00
   0.9906936E+00   0.3307421E+00  -0.1200000E+03   0.0000000E+00   0.0000000E+00   0.0000000E+00   0.0000000E+00
   0.1014095E+01   0.2499519E+00  -0.1200000E+03   0.0000000E+00   0.0000000E+00   0.0000000E+00   0.0000000E+00
   0.2028190E+01   0.4999038E+00  -0.1200000E+03   0.0000000E+00   0.0000000E+00   0.0000000E+00   0.0000000E+00
   0.2061838E+01   0.3350813E+00  -0.1200000E+03   0.0000000E+00   0.0000000E+00   0.0000000E+00   0.0000000E+00
   0.1014095E+01   0.2499519E+00  -0.1200000E+03   0.0000000E+00   0.0000000E+00   0.0000000E+00   0.0000000E+00