VARIABLES="w (rad/s)"
"abs(F   1   1)" "angle(F   1   1)"
"abs(F   1   2)" "angle(F   1   2)"
"abs(F   1   3)" "angle(F   1   3)"
"abs(F   1   4)" "angle(F   1   4)"
"abs(F   1   5)" "angle(F   1   5)"
"abs(F   1   6)" "angle(F   1   6)"
"abs(F   2   1)" "angle(F   2   1)"
"abs(F   2   2)" "angle(F   2   2)"
"abs(F   2   3)" "angle(F   2   3)"
"abs(F   2   4)" "angle(F   2   4)"
"abs(F   2   5)" "angle(F   2   5)"
"abs(F   2   6)" "angle(F   2   6)"
Zone t="Diffraction force - beta =   0.000 deg",I=   500,F=POINT
  0.3000000E-01  0.1726468E+05 -0.1570769E+01  0.2294584E-01  0.1809637E+00  0.9799817E+06 -0.3885503E-03  0.7503497E-01 -0.2204365E-01  0.2248836E+05 -0.1570847E+01  0.1239188E-01  0.1835775E+00  0.1726508E+05 -0.1356491E+01  0.3524767E+00  0.3074389E+01  0.9799241E+06  0.2141793E+00  0.4176643E+00  0.4270938E-01  0.2248914E+05 -0.1356431E+01  0.1079662E-02 -0.2924360E+01
  0.6000000E-01  0.3467512E+05 -0.1570013E+01  0.1433562E-01  0.2210151E+01  0.9777454E+06 -0.1259211E-02  0.6513838E-01 -0.5078125E-01  0.4507104E+05 -0.1569962E+01  0.2419501E-01  0.3358886E-01  0.3467993E+05 -0.1142387E+01  0.1234933E+00  0.3993327E+00  0.9773159E+06  0.4284459E+00  0.1377264E+00  0.2981636E+01  0.4507239E+05 -0.1142400E+01  0.8228330E-02 -0.2616121E+01
  0.9000000E-01  0.5201046E+05 -0.1569522E+01  0.9778422E-02  0.7792260E+00  0.9742996E+06 -0.2286595E-02  0.3003892E-01 -0.2153562E+00  0.6763388E+05 -0.1569351E+01  0.3148020E-01  0.2952619E-01  0.5204787E+05 -0.9274958E+00  0.2498541E+00  0.2952764E+01  0.9729977E+06  0.6431688E+00  0.1373423E+00 -0.5417925E+00  0.6769474E+05 -0.9278083E+00  0.1805444E-01 -0.2962306E+01
  0.1200000E+00  0.6936801E+05 -0.1570536E+01  0.4056609E-01  0.1898171E+01  0.9699372E+06 -0.3108799E-02  0.2878496E-01 -0.2085006E+01  0.9010905E+05 -0.1570602E+01  0.2827853E-01  0.3404787E+00  0.6946001E+05 -0.7100481E+00  0.2850317E+00 -0.2189563E+01  0.9673001E+06  0.8587788E+00  0.3788628E-01  0.2110889E+01  0.9023905E+05 -0.7100033E+00  0.4099327E-01 -0.2871962E+00
  0.1500000E+00  0.8680813E+05 -0.1570972E+01  0.4295376E-01  0.1178516E+01  0.9643120E+06 -0.3468821E-02  0.9073353E-01 -0.3026128E+01  0.1126114E+06 -0.1570962E+01  0.2559674E-01 -0.1022267E+00  0.8696014E+05 -0.4922541E+00  0.5727325E-01 -0.2775143E+01  0.9601859E+06  0.1075751E+01  0.1721238E+00  0.1990344E+01  0.1128249E+06 -0.4922089E+00  0.1433776E-01 -0.1721423E+01
  0.1800000E+00  0.1043661E+06 -0.1572476E+01  0.4209137E-01  0.6303015E+00  0.9570204E+06 -0.3135322E-02  0.8446626E-01 -0.2965975E+01  0.1351687E+06 -0.1572466E+01  0.2207777E-01  0.8509622E+00  0.1045373E+06 -0.2720475E+00  0.1275515E+00  0.2209070E+01  0.9517098E+06  0.1294447E+01  0.1248952E+00 -0.1867809E+01  0.1354185E+06 -0.2720872E+00  0.4034050E-01 -0.7128519E+00
  0.2100000E+00  0.1219997E+06 -0.1574331E+01  0.2403674E-01  0.1197253E+01  0.9475640E+06 -0.2363737E-02  0.1686842E+00 -0.2909140E+01  0.1577540E+06 -0.1574352E+01  0.5440778E-01  0.3661974E+00  0.1221064E+06 -0.4914727E-01  0.7304811E-01  0.2071715E+01  0.9419461E+06  0.1515312E+01  0.4503492E+00 -0.1536772E+01  0.1579554E+06 -0.4912398E-01  0.3795632E-01 -0.3085927E+00
  0.2400000E+00  0.1401711E+06 -0.1575796E+01  0.7776302E-01  0.1695277E+01  0.9355379E+06 -0.1654755E-02  0.9789727E-01 -0.2540059E+01  0.1807908E+06 -0.1575782E+01  0.1384398E-01  0.1438700E+01  0.1399295E+06  0.1764864E+00  0.8270699E-01 -0.2743772E+01  0.9309194E+06  0.1738794E+01  0.2091752E+00 -0.1513648E+01  0.1805550E+06  0.1764940E+00  0.5561271E-01 -0.1999785E+00
  0.2700000E+00  0.1587336E+06 -0.1576361E+01  0.4722594E-01  0.1352218E+01  0.9208368E+06 -0.1809675E-02  0.8341969E-01 -0.2508655E+01  0.2043077E+06 -0.1576351E+01  0.8052283E-02 -0.7292592E+00  0.1578722E+06  0.4056346E+00  0.2425667E+00 -0.2171670E+01  0.9186411E+06  0.1965379E+01  0.9548655E-01 -0.3995146E+00  0.2032925E+06  0.4056236E+00  0.1105144E+00  0.5125399E+00
  0.3000000E+00  0.1775614E+06 -0.1575271E+01  0.5781132E-01  0.1262884E+01  0.9039494E+06 -0.3850911E-02  0.2128635E+00 -0.2757014E+01  0.2278896E+06 -0.1575308E+01  0.2409227E-01  0.5608819E+00  0.1758519E+06  0.6387400E+00  0.5036192E-01 -0.1668969E+01  0.9052483E+06  0.2195556E+01  0.1786790E+00 -0.4603251E+00  0.2258734E+06  0.6387104E+00  0.6241161E-01  0.3868170E+00
  0.3300000E+00  0.1967436E+06 -0.1571724E+01  0.1041479E+00  0.8732008E+00  0.8855479E+06 -0.8585022E-02  0.2480043E+00 -0.2954971E+01  0.2516845E+06 -0.1571738E+01  0.2162713E-01  0.1149205E+01  0.1939684E+06  0.8764222E+00  0.1593359E+00 -0.3014868E+01  0.8905542E+06  0.2429792E+01  0.3245487E+00  0.6622265E-01  0.2483520E+06  0.8764191E+00  0.7586348E-01 -0.3170437E+00
  0.3600000E+00  0.2161985E+06 -0.1565805E+01  0.9104722E-01  0.1010355E+01  0.8671838E+06 -0.1635852E-01  0.1771799E+00 -0.2769486E+01  0.2756804E+06 -0.1565793E+01  0.5269887E-01  0.1596858E+01  0.2124673E+06  0.1119119E+01  0.4068639E+00  0.2893753E+01  0.8748586E+06  0.2668679E+01  0.4858460E+00 -0.2058771E+00  0.2711688E+06  0.1119155E+01  0.4260696E-01 -0.3693336E+00
  0.3900000E+00  0.2353081E+06 -0.1558289E+01  0.1121561E+00  0.1303519E+01  0.8501657E+06 -0.2666575E-01  0.1934503E+00 -0.2911384E+01  0.2989353E+06 -0.1558299E+01  0.8837888E-01  0.6892006E+00  0.2311418E+06  0.1367456E+01  0.1041142E+00 -0.2414677E+01  0.8580622E+06  0.2912797E+01  0.3630149E+00 -0.9556143E-01  0.2939861E+06  0.1367432E+01  0.3412307E-01 -0.1825753E+01
  0.4200000E+00  0.2537093E+06 -0.1550488E+01  0.7120454E-01  0.8859605E+00  0.8353473E+06 -0.3797688E-01  0.2588277E+00 -0.3077769E+01  0.3209254E+06 -0.1550482E+01  0.6169789E-01  0.1937571E+01  0.2500029E+06  0.1622099E+01  0.1241753E+00 -0.2585614E+01  0.8400254E+06 -0.3120569E+01  0.4263236E+00  0.2897992E+00  0.3167082E+06  0.1622045E+01  0.2003415E-01  0.1657732E+01
  0.4500000E+00  0.2711301E+06 -0.1544667E+01  0.6878637E-01  0.9086658E+00  0.8230821E+06 -0.4790303E-01  0.3247784E+00  0.3103827E+01  0.3415887E+06 -0.1544651E+01  0.6969149E-01  0.1758884E+01  0.2690317E+06  0.1883663E+01  0.1812446E+00 -0.1704518E+01  0.8209809E+06 -0.2864469E+01  0.6009218E+00  0.1905781E+00  0.3395106E+06  0.1883650E+01  0.5393508E-01 -0.2395215E+01
  0.4800000E+00  0.2876968E+06 -0.1543263E+01  0.5951817E-01  0.7552555E+00  0.8124734E+06 -0.5357280E-01  0.3057824E+00 -0.3103218E+01  0.3607952E+06 -0.1543226E+01  0.7904124E-01  0.1618111E+01  0.2882446E+06  0.2152790E+01  0.1462883E+00 -0.1219913E+01  0.8012741E+06 -0.2601243E+01  0.4763498E+00  0.8357717E+00  0.3621408E+06  0.2152805E+01  0.8049355E-01  0.2501201E+01
  0.5100000E+00  0.3043640E+06 -0.1548083E+01  0.8494952E-01  0.6789480E+00  0.8007668E+06 -0.5336528E-01  0.3731290E+00 -0.2999158E+01  0.3796752E+06 -0.1548025E+01  0.2095539E-01  0.1581719E+01  0.3079147E+06  0.2430314E+01  0.2247904E+00 -0.1858345E+01  0.7806173E+06 -0.2330379E+01  0.4542361E+00  0.1240739E+01  0.3849159E+06  0.2430315E+01  0.1001231E+00  0.1548239E+01
  0.5400000E+00  0.3226507E+06 -0.1559163E+01  0.1095884E+00  0.1241931E+01  0.7848858E+06 -0.4737504E-01  0.3230128E+00 -0.2788840E+01  0.4002678E+06 -0.1559117E+01  0.8669349E-01  0.2279423E+01  0.3282362E+06  0.2717108E+01  0.2301050E+00 -0.1612585E+01  0.7591019E+06 -0.2051143E+01  0.2947316E+00  0.1136697E+01  0.4081964E+06  0.2717085E+01  0.5659411E-01  0.1372132E+01
  0.5699999E+00  0.3440888E+06 -0.1573496E+01  0.1246659E+00  0.1111391E+01  0.7621598E+06 -0.3785881E-01  0.2317799E+00 -0.2903037E+01  0.4245869E+06 -0.1573472E+01  0.5410254E-01  0.2696361E+01  0.3490232E+06  0.3014185E+01  0.1956785E+00 -0.1541550E+01  0.7370441E+06 -0.1762686E+01  0.4574857E+00  0.1701514E+01  0.4318895E+06  0.3014131E+01  0.1554017E+00  0.2687430E+01
  0.6000000E+00  0.3699132E+06 -0.1584798E+01  0.9295385E-01  0.4978827E+00  0.7314972E+06 -0.2950164E-01  0.3875496E+00 -0.3036754E+01  0.4538231E+06 -0.1584771E+01  0.3784937E-01 -0.2587224E+01  0.3702131E+06 -0.2960467E+01  0.2799915E+00 -0.1419894E+01  0.7149574E+06 -0.1463306E+01  0.3572837E+00  0.1913036E+01  0.4556475E+06 -0.2960519E+01  0.1126282E+00  0.2825711E+01
  0.6299999E+00  0.3999970E+06 -0.1585767E+01  0.1137194E+00  0.4975804E+00  0.6939664E+06 -0.2970611E-01  0.2740024E+00 -0.3139922E+01  0.4875947E+06 -0.1585754E+01  0.1204147E+00 -0.2587318E+01  0.3918460E+06 -0.2639218E+01  0.2028050E+00  0.1243352E-01  0.6922567E+06 -0.1152317E+01  0.4062974E+00  0.1877689E+01  0.4793862E+06 -0.2639273E+01  0.1196429E+00 -0.2755592E+01
  0.6600000E+00  0.4319594E+06 -0.1571581E+01  0.1526341E+00  0.4967543E+00  0.6544241E+06 -0.4566500E-01  0.1908560E+00 -0.2675192E+01  0.5228766E+06 -0.1571598E+01  0.7638063E-01 -0.2647922E+01  0.4138750E+06 -0.2304000E+01  0.2184418E+00 -0.8177565E+00  0.6686441E+06 -0.8287469E+00  0.3196402E+00  0.2701516E+01  0.5030095E+06 -0.2304074E+01  0.1336063E+00  0.3061562E+01
  0.6899999E+00  0.4612102E+06 -0.1543064E+01  0.9703809E-01  0.1997797E+00  0.6207161E+06 -0.8014797E-01  0.2374550E+00 -0.3116633E+01  0.5544835E+06 -0.1543114E+01  0.2009639E+00 -0.1477421E+01  0.4361352E+06 -0.1953947E+01  0.2221214E+00 -0.4989849E+00  0.6438421E+06 -0.4922140E+00  0.3888904E+00 -0.3058314E+01  0.5266479E+06 -0.1954081E+01  0.8623251E-01 -0.2079407E+01
  0.7200000E+00  0.4824375E+06 -0.1508281E+01  0.1203733E+00 -0.1162969E+00  0.6012505E+06 -0.1234493E+00  0.7352443E-01 -0.8555466E+00  0.5760428E+06 -0.1508302E+01  0.1713834E+00 -0.1754887E+01  0.4584630E+06 -0.1588490E+01  0.1621790E+00 -0.3896140E-01  0.6187916E+06 -0.1410040E+00  0.7811099E-01 -0.1408731E+01  0.5500834E+06 -0.1588631E+01  0.3501586E+00 -0.1766038E+01
  0.7499999E+00  0.4931799E+06 -0.1481990E+01  0.2796369E+00 -0.7334934E+00  0.5957622E+06 -0.1558201E+00  0.6039138E+00  0.2474766E+01  0.5846656E+06 -0.1481915E+01  0.7505117E-01 -0.1748614E+01  0.4811748E+06 -0.1207267E+01  0.1791070E+00  0.2483477E+01  0.5930021E+06  0.2250416E+00  0.2052577E+00 -0.2654076E+01  0.5735138E+06 -0.1207386E+01  0.1319627E+00 -0.1362431E+01
  0.7800000E+00  0.4969680E+06 -0.1481931E+01  0.4864830E+00 -0.3992363E+00  0.5951997E+06 -0.1605501E+00  0.1957758E+01  0.2930644E+01  0.5845636E+06 -0.1481732E+01  0.4115296E-01  0.1818024E+01  0.5044894E+06 -0.8094826E+00  0.3666145E+00  0.8720613E+00  0.5672778E+06  0.6056682E+00  0.2561846E+01 -0.2472377E+01  0.5969811E+06 -0.8096186E+00  0.7680001E-01  0.5372849E+00
  0.8100000E+00  0.5068124E+06 -0.1516727E+01  0.5202287E+00  0.2997601E+00  0.5848753E+06 -0.1362294E+00  0.2342957E+01 -0.3121955E+01  0.5911388E+06 -0.1516471E+01  0.2567192E+00  0.1811703E+01  0.5292201E+06 -0.3933067E+00  0.5085276E+00  0.1070104E+01  0.5422297E+06  0.1001943E+01  0.3018660E+01 -0.2067337E+01  0.6213891E+06 -0.3934871E+00  0.1318184E+00  0.2420411E+01
  0.8400000E+00  0.5400586E+06 -0.1565596E+01  0.5359279E+00  0.7329201E+00  0.5534248E+06 -0.9950432E-01  0.2051481E+01 -0.2964532E+01  0.6248149E+06 -0.1565378E+01  0.2953910E+00  0.1689067E+01  0.5559642E+06  0.4435979E-01  0.2425820E+00  0.1547394E+01  0.5186081E+06  0.1415867E+01  0.2728145E+01 -0.1632629E+01  0.6479774E+06  0.4401317E-01  0.5083107E+00 -0.2999305E+01
  0.8700000E+00  0.6009323E+06 -0.1580434E+01  0.3758671E+00  0.8453163E+00  0.5003044E+06 -0.8153555E-01  0.1546622E+01 -0.2910330E+01  0.6897333E+06 -0.1580262E+01  0.2864763E+00  0.1732031E+01  0.5839552E+06  0.5074075E+00  0.3991021E+00  0.2131475E+01  0.4966111E+06  0.1855169E+01  0.2216522E+01 -0.1118952E+01  0.6758161E+06  0.5069957E+00  0.2101825E+00 -0.2103198E+01
  0.9000000E+00  0.6664409E+06 -0.1533402E+01  0.7224088E+00 -0.1113533E+01  0.4438817E+06 -0.1242803E+00  0.6574917E+00  0.2505653E+01  0.7587357E+06 -0.1533235E+01  0.2303075E+00  0.1584577E+01  0.6104055E+06  0.9976229E+00  0.2061673E+00  0.2902179E+01  0.4741234E+06  0.2319759E+01  0.7707704E+00 -0.1580017E+00  0.7012436E+06  0.9972204E+00  0.7119744E-01 -0.1124018E+01
  0.9300000E+00  0.6997326E+06 -0.1445311E+01  0.1069242E+01 -0.1140494E+01  0.4158077E+06 -0.2296423E+00  0.1350288E+01  0.2250515E+01  0.7897058E+06 -0.1445148E+01  0.6952162E-01  0.8427131E-01  0.6326098E+06  0.1512568E+01  0.1805633E+00 -0.2673410E+01  0.4484868E+06  0.2807081E+01  0.3530789E+00  0.6558959E+00  0.7210130E+06  0.1512051E+01  0.2336431E+00 -0.1568706E+01
  0.9600000E+00  0.6807399E+06 -0.1375042E+01  0.6924475E+00 -0.7308815E+00  0.4259347E+06 -0.3051233E+00  0.1698338E+01  0.2972991E+01  0.7613147E+06 -0.1374794E+01  0.2430986E+00  0.3931881E+00  0.6509452E+06  0.2045927E+01  0.4309101E+00 -0.2480583E+01  0.4209468E+06 -0.2974065E+01  0.2103138E+01  0.4699033E+00  0.7357835E+06  0.2045178E+01  0.2991240E+00 -0.1016869E+01
  0.9900000E+00  0.6396604E+06 -0.1396038E+01  0.1282495E+00 -0.4321565E+00  0.4404892E+06 -0.2858143E+00  0.9212755E+00 -0.2889378E+01  0.7094737E+06 -0.1395461E+01  0.1059649E+00  0.1420763E+01  0.6712107E+06  0.2594906E+01  0.2887484E+00 -0.1369152E+01  0.3956942E+06 -0.2461651E+01  0.1299477E+01  0.8472120E+00  0.7530917E+06  0.2593876E+01  0.3295294E+00 -0.5160217E+00
  0.1020000E+01  0.6576796E+06 -0.1506169E+01  0.1904339E+00 -0.2671235E+01  0.4215704E+06 -0.2044356E+00  0.6622506E+00  0.4959568E+00  0.7236199E+06 -0.1505240E+01  0.3560857E+00  0.1914508E+01  0.6989834E+06 -0.3115231E+01  0.2771344E+00  0.1309495E+01  0.3766672E+06 -0.1926736E+01  0.6768121E+00 -0.2166078E+01  0.7790875E+06 -0.3116431E+01  0.9873073E-01 -0.2993926E+01
  0.1050000E+01  0.7684739E+06 -0.1541363E+01  0.5527006E-01 -0.9173563E+00  0.3598062E+06 -0.1543107E+00  0.4407303E+00  0.2979267E+01  0.8386419E+06 -0.1540343E+01  0.2774675E+00  0.2409999E+01  0.7308982E+06 -0.2502993E+01  0.3807310E+00  0.3309582E+00  0.3611095E+06 -0.1351548E+01  0.9052854E+00  0.2269989E+01  0.8093064E+06 -0.2504120E+01  0.3160857E+00  0.4078330E+00
  0.1080000E+01  0.8670168E+06 -0.1427384E+01  0.1686722E+00  0.1310683E+01  0.2996513E+06 -0.2669215E+00  0.5978486E+00 -0.1805352E+01  0.9385294E+06 -0.1426408E+01  0.3203152E+00  0.2218394E+01  0.7513484E+06 -0.1850273E+01  0.8045395E-01  0.2105752E+01  0.3417734E+06 -0.7375168E+00  0.7741096E+00  0.3048420E+01  0.8261886E+06 -0.1851565E+01  0.1741214E+00  0.1265289E+00
  0.1110000E+01  0.8399821E+06 -0.1280835E+01  0.2690108E+00 -0.5681714E+00  0.3035214E+06 -0.4424299E+00  0.1082636E+01  0.2556253E+01  0.9016291E+06 -0.1279730E+01  0.2777404E+00  0.1924692E+01  0.7521358E+06 -0.1181731E+01  0.8797111E-01  0.1995960E+01  0.3151863E+06 -0.1104942E+00  0.4928761E+00 -0.2945169E+01  0.8210568E+06 -0.1183508E+01  0.2006286E+00  0.1203623E+01
  0.1140000E+01  0.7293337E+06 -0.1274849E+01  0.1405053E+00 -0.1790169E+00  0.3313879E+06 -0.4346817E+00  0.6468946E+00 -0.2763145E+01  0.7761763E+06 -0.1273301E+01  0.3637888E+00  0.3088761E+01  0.7518731E+06 -0.5162437E+00  0.2364421E-01  0.2320594E+01  0.2905938E+06  0.5099088E+00  0.1393707E+01 -0.2467782E+01  0.8148483E+06 -0.5187135E+00  0.3585857E+00  0.2479027E+01
  0.1170000E+01  0.7290062E+06 -0.1444385E+01  0.3166302E+00 -0.1448374E+01  0.3183034E+06 -0.3164356E+00  0.7041438E+00  0.2161311E+01  0.7701182E+06 -0.1442268E+01  0.2840694E+00  0.2523834E+01  0.7716942E+06  0.1675938E+00  0.1686327E+00 -0.1942699E+01  0.2771074E+06  0.1142508E+01  0.1116515E+01 -0.1837547E+01  0.8319389E+06  0.1644247E+00  0.3318490E+00  0.2280790E+01
  0.1200000E+01  0.8882714E+06 -0.1460637E+01  0.1591217E+00  0.2461969E+01  0.2541414E+06 -0.2704523E+00  0.1528978E+00 -0.1334877E+01  0.9319135E+06 -0.1458304E+01  0.2707317E+00 -0.1460060E+01  0.7981673E+06  0.9064489E+00  0.2771551E+00 -0.5989358E+00  0.2670321E+06  0.1838528E+01  0.3465535E+00  0.3023671E+01  0.8567150E+06  0.9034334E+00  0.1755269E+00  0.2529670E+01
  0.1230000E+01  0.9505739E+06 -0.1279620E+01  0.3683756E+00 -0.3086702E+01  0.2161827E+06 -0.4886336E+00  0.6660757E+00  0.6239165E-01  0.9907814E+06 -0.1277015E+01  0.3909669E+00  0.2910965E+01  0.7925834E+06  0.1685639E+01  0.3378473E+00 -0.2378146E+00  0.2480342E+06  0.2574803E+01  0.5150307E+00 -0.3106270E+01  0.8467759E+06  0.1682418E+01  0.6214808E-01 -0.1712693E+01
  0.1260000E+01  0.8186612E+06 -0.1170657E+01  0.6358944E+00 -0.3000524E+01  0.2427028E+06 -0.5986274E+00  0.7669058E+00  0.3785288E+00  0.8475104E+06 -0.1167423E+01  0.7181963E+00  0.3011177E+01  0.7643014E+06  0.2448627E+01  0.2871688E+00  0.1165067E+01  0.2242750E+06 -0.2987011E+01  0.5823303E+00 -0.2170136E+01  0.8126343E+06  0.2444698E+01  0.3910509E+00 -0.1715518E+01
  0.1290000E+01  0.7268334E+06 -0.1320109E+01  0.4678439E+00 -0.2371988E+01  0.2478085E+06 -0.4876355E+00  0.1351279E+01  0.5895528E+00  0.7467337E+06 -0.1315791E+01  0.3222717E+00  0.2701070E+01  0.7589692E+06 -0.3080646E+01  0.3771203E+00  0.1989300E+01  0.2091653E+06 -0.2276754E+01  0.8637305E+00 -0.1523434E+01  0.8031818E+06 -0.3085346E+01  0.2216767E+00 -0.2620079E+00
  0.1320000E+01  0.8562776E+06 -0.1418412E+01  0.3417725E+00 -0.9272423E+00  0.2041380E+06 -0.4023858E+00  0.1037507E+01  0.6986457E+00  0.8724662E+06 -0.1414342E+01  0.3160582E+00 -0.3083916E+00  0.7749191E+06 -0.2276804E+01  0.7147290E+00  0.2700441E+01  0.2016268E+06 -0.1518289E+01  0.1314621E+01 -0.8042106E+00  0.8161491E+06 -0.2282458E+01  0.1070049E+00  0.1696500E+00
  0.1350000E+01  0.9373785E+06 -0.1262778E+01  0.3247045E+00 -0.3055525E+01  0.1663363E+06 -0.5888836E+00  0.1212167E+01  0.1994875E+00  0.9508308E+06 -0.1258969E+01  0.1924576E+00 -0.1779192E+01  0.7635254E+06 -0.1420998E+01  0.4650675E+00 -0.2516308E+01  0.1887857E+06 -0.7071571E+00  0.8945171E+00 -0.1023506E-01  0.8027551E+06 -0.1427457E+01  0.4943777E+00  0.5393609E+00
  0.1380000E+01  0.8132400E+06 -0.1152467E+01  0.8705018E+00 -0.2763460E+01  0.1821028E+06 -0.7285815E+00  0.1649590E+01  0.5165979E+00  0.8213192E+06 -0.1147627E+01  0.7547179E+00  0.2699032E+01  0.7243146E+06 -0.5798192E+00  0.4684375E+00 -0.1820420E+01  0.1706658E+06  0.9848311E-01  0.9702386E+00  0.7974644E+00  0.7607275E+06 -0.5867149E+00  0.1263878E+00  0.1503136E+01
  0.1410000E+01  0.7195332E+06 -0.1286020E+01  0.3666345E+00 -0.1081838E+01  0.1851109E+06 -0.6408482E+00  0.5672905E+00  0.1012967E+01  0.7226409E+06 -0.1279512E+01  0.4200877E+00 -0.1393492E+00  0.7047469E+06  0.2449090E+00  0.1965372E+00 -0.2317219E+00  0.1579782E+06  0.8908364E+00  0.5660316E+00  0.1684478E+01  0.7394465E+06  0.2377834E+00  0.1016906E+00  0.1233102E+01
  0.1440000E+01  0.8150458E+06 -0.1380069E+01  0.6102518E+00  0.1089701E+01  0.1545213E+06 -0.5758137E+00  0.3151554E+00 -0.2655337E+01  0.8135908E+06 -0.1373193E+01  0.5732041E+00 -0.8145974E+00  0.7057857E+06  0.1109688E+01  0.8746067E-01  0.2021277E+01  0.1511273E+06  0.1721620E+01  0.3655909E+00 -0.1056843E+01  0.7399459E+06  0.1102345E+01  0.5034297E+00  0.2180926E+01
  0.1470000E+01  0.8716169E+06 -0.1256290E+01  0.6786221E+00  0.2882039E+01  0.1282514E+06 -0.7431725E+00  0.6068292E+00 -0.3338634E-01  0.8656710E+06 -0.1249969E+01  0.2305233E+00 -0.1936601E+01  0.6896051E+06  0.2022185E+01  0.2520148E+00 -0.2649455E+01  0.1410052E+06  0.2602243E+01  0.1835642E+00  0.5700191E+00  0.7224236E+06  0.2014050E+01  0.1431959E+00 -0.2062659E+01
  0.1500000E+01  0.7563252E+06 -0.1168016E+01  0.2428332E+00 -0.2248148E+01  0.1367897E+06 -0.8744530E+00  0.1946821E+00  0.2819854E+01  0.7476053E+06 -0.1161577E+01  0.3672069E+00 -0.8255456E+00  0.6503714E+06  0.2929077E+01  0.4287065E+00 -0.1190079E+01  0.1268135E+06 -0.2805043E+01  0.4149395E+00  0.1769201E+01  0.6809262E+06  0.2919734E+01  0.4756252E+00 -0.1591330E+01
  0.1530000E+01  0.6692547E+06 -0.1324807E+01  0.2558996E+00  0.5122529E+00  0.1380242E+06 -0.7861287E+00  0.4566850E+00 -0.2732198E+01  0.6575621E+06 -0.1317690E+01  0.4976255E+00 -0.1230660E+01  0.6240029E+06 -0.2466992E+01  0.3249206E+00 -0.7445590E-01  0.1163918E+06 -0.1945582E+01  0.4067795E+00  0.3075224E+01  0.6536396E+06 -0.2477215E+01  0.1818749E+00 -0.7160519E+00
  0.1560000E+01  0.7888091E+06 -0.1415264E+01  0.3145744E+00  0.2661252E+01  0.1096049E+06 -0.7216663E+00  0.4304312E+00  0.6240450E+00  0.7724137E+06 -0.1408958E+01  0.6157577E+00 -0.1285226E+01  0.6219148E+06 -0.1545321E+01  0.2978092E+00  0.6994405E-01  0.1114240E+06 -0.1046928E+01  0.6880985E+00  0.2887121E+01  0.6539719E+06 -0.1555032E+01  0.3320770E+00 -0.1186442E+00
  0.1590000E+01  0.8151161E+06 -0.1217081E+01  0.1830872E+00 -0.2922894E+01  0.9417481E+05 -0.1016501E+01  0.1717262E+00  0.8224135E+00  0.7965768E+06 -0.1211135E+01  0.5846356E+00  0.3031806E+01  0.6018822E+06 -0.5627949E+00  0.2554671E+00  0.1823873E+01  0.1041603E+06 -0.8162051E-01  0.2557361E+00 -0.2132583E+01  0.6353004E+06 -0.5716423E+00  0.4285815E+00  0.1449162E+01
  0.1620000E+01  0.6101174E+06 -0.1213015E+01  0.3213577E+00  0.1362265E+01  0.1137969E+06 -0.1037783E+01  0.4536957E+00 -0.1845446E+01  0.5947894E+06 -0.1205808E+01  0.3763099E+00 -0.2831819E+01  0.5552338E+06  0.3908496E+00  0.1826000E+00  0.2722656E+01  0.9248185E+05  0.8572001E+00  0.2133238E+00 -0.5713374E+00  0.5885369E+06  0.3824629E+00  0.5888713E+00  0.2459276E+01
  0.1650000E+01  0.6702409E+06 -0.1531786E+01  0.3815370E+00 -0.2519082E+01  0.9903356E+05 -0.8227361E+00  0.3990368E+00  0.4645368E+00  0.6499119E+06 -0.1525305E+01  0.4600586E+00 -0.1878094E+01  0.5434329E+06  0.1318037E+01  0.1977528E+00  0.2541006E+01  0.8704632E+05  0.1769775E+01  0.2281436E+00 -0.1568800E+00  0.5789722E+06  0.1311101E+01  0.7278693E+00 -0.2568335E+01
  0.1680000E+01  0.8260481E+06 -0.1316422E+01  0.4148003E+00 -0.2634995E+01  0.6616691E+05 -0.1095496E+01  0.4864495E+00  0.8359352E+00  0.7996004E+06 -0.1313209E+01  0.2273634E+00  0.2222351E+01  0.5462066E+06  0.2340374E+01  0.1239755E+00 -0.3069931E+01  0.8380334E+05  0.2780802E+01  0.1982702E+00 -0.1833647E+00  0.5844144E+06  0.2334964E+01  0.2539012E+00 -0.2239880E+00
  0.1710000E+01  0.5779641E+06 -0.1160389E+01  0.1576082E+00  0.1969713E+01  0.9047237E+05 -0.1258992E+01  0.1937953E+00 -0.9665241E+00  0.5590822E+06 -0.1157387E+01  0.3308273E+00  0.2345628E+01  0.4976503E+06 -0.2913489E+01  0.4140393E+00 -0.1807006E+01  0.7273408E+05 -0.2485032E+01  0.1798153E+00  0.1307417E+01  0.5350176E+06 -0.2917889E+01  0.3157221E+00  0.1749628E-01
  0.1740000E+01  0.5909004E+06 -0.1622647E+01  0.4043052E+00  0.2507362E+00  0.8218301E+05 -0.9567865E+00  0.4334409E+00 -0.3063766E+01  0.5682324E+06 -0.1622527E+01  0.4351369E+00 -0.2966275E+01  0.4765674E+06 -0.1961730E+01  0.3299437E+00 -0.7149667E+00  0.6641896E+05 -0.1535480E+01  0.4076060E+00  0.2182307E+01  0.5152178E+06 -0.1964085E+01  0.6688396E+00  0.1086089E+01
  0.1770000E+01  0.7976775E+06 -0.1376443E+01  0.4924104E+00  0.2852948E+00  0.4893043E+05 -0.1229459E+01  0.4929970E+00 -0.2881529E+01  0.7676816E+06 -0.1381142E+01  0.4680064E+00  0.1918866E+01  0.4894015E+06 -0.9061520E+00  0.6288081E+00  0.1884486E+00  0.6586974E+05 -0.4799752E+00  0.4997838E+00 -0.2986362E+01  0.5320643E+06 -0.9049017E+00  0.9673917E-01 -0.1241863E+01
  0.1800000E+01  0.5184490E+06 -0.1175723E+01  0.3230406E+00 -0.8629896E-01  0.7384722E+05 -0.1436179E+01  0.3895462E+00 -0.3090511E+01  0.5000061E+06 -0.1179876E+01  0.5076920E+00  0.1485095E+01  0.4453762E+06  0.1800044E+00  0.7094660E+00  0.1347991E+01  0.5684260E+05  0.6129408E+00  0.6641069E+00 -0.1905481E+01  0.4877586E+06  0.1861682E+00  0.6206111E-01 -0.8644102E+00
  0.1830000E+01  0.5628971E+06 -0.1704195E+01  0.4873951E+00  0.2188557E+00  0.6486877E+05 -0.1079255E+01  0.3202974E+00  0.2796293E+01  0.5409714E+06 -0.1712071E+01  0.5803818E+00  0.2919776E+01  0.4279537E+06  0.1167883E+01  0.7540107E+00  0.2477926E+01  0.5211594E+05  0.1600390E+01  0.6479109E+00 -0.8578684E+00  0.4722707E+06  0.1180079E+01  0.4524776E+00 -0.1380808E+01
  0.1860000E+01  0.7344931E+06 -0.1365757E+01  0.1143027E+00  0.3107178E+01  0.3892149E+05 -0.1510895E+01  0.3151700E+00 -0.2063018E+00  0.7084120E+06 -0.1378781E+01  0.6569903E+00  0.1472815E+01  0.4420507E+06  0.2276811E+01  0.3012614E+00 -0.2252715E+01  0.5124857E+05  0.2717064E+01  0.2022687E+00  0.6580347E+00  0.4905824E+06  0.2295916E+01  0.2718044E+00  0.2272895E+01
  0.1890000E+01  0.4302586E+06 -0.1278474E+01  0.9279844E-01  0.3246234E+00  0.6309928E+05 -0.1552663E+01  0.4683129E-01  0.5552835E+00  0.4164103E+06 -0.1291989E+01  0.5084231E+00  0.2100365E+01  0.4025391E+06 -0.2890548E+01  0.2320876E+00 -0.9880818E+00  0.4478919E+05 -0.2438058E+01  0.1879126E+00  0.2073746E+01  0.4491843E+06 -0.2866195E+01  0.4893355E+00  0.1996113E+01
  0.1920000E+01  0.5692418E+06 -0.1737647E+01  0.6104261E+00 -0.2390965E+01  0.4841697E+05 -0.1206751E+01  0.8046041E+00  0.2628074E+00  0.5503109E+06 -0.1758850E+01  0.5137157E+00 -0.2765356E+01  0.4003426E+06 -0.1847081E+01  0.1722688E+00  0.2258457E+01  0.4249305E+05 -0.1398512E+01  0.3679728E+00 -0.6802327E+00  0.4489433E+06 -0.1815963E+01  0.6569556E+00  0.1794232E+01
  0.1950000E+01  0.6164041E+06 -0.1304080E+01  0.3604338E+00  0.3036878E+01  0.3646074E+05 -0.1810069E+01  0.4522737E+00 -0.2938158E+00  0.6000937E+06 -0.1331266E+01  0.6867344E+00 -0.4845959E+00  0.4045740E+06 -0.6672733E+00  0.4375677E+00 -0.2487407E+01  0.3899898E+05 -0.2252531E+00  0.6103142E+00  0.4689250E+00  0.4548562E+06 -0.6309884E+00  0.3024243E+00 -0.2134615E+01
  0.1980000E+01  0.3594420E+06 -0.1518952E+01  0.7517574E+00 -0.3092575E+01  0.4987894E+05 -0.1603196E+01  0.1059000E+01 -0.4169778E+00  0.3509110E+06 -0.1547647E+01  0.6879857E+00 -0.2568661E+01  0.3752470E+06  0.4606753E+00  0.7439995E+00 -0.1068328E+01  0.3347002E+05  0.9320248E+00  0.1009497E+01  0.1843589E+01  0.4231305E+06  0.5010727E+00  0.7196464E+00 -0.1843178E+01
  0.2010000E+01  0.5644755E+06 -0.1680519E+01  0.9036774E+00 -0.3003301E+01  0.2900049E+05 -0.1397715E+01  0.1177196E+01 -0.8564071E-01  0.5543351E+06 -0.1719960E+01  0.1224983E+01 -0.1652901E+01  0.3869707E+06  0.1599817E+01  0.1359794E+01  0.2240536E+00  0.3021582E+05  0.2043504E+01  0.1576484E+01 -0.3097480E+01  0.4369589E+06  0.1644041E+01  0.7993282E+00 -0.8996806E+00
  0.2040000E+01  0.4487469E+06 -0.1279083E+01  0.9469807E+00  0.2818594E+01  0.3213140E+05 -0.1912925E+01  0.1111793E+01 -0.3368329E+00  0.4446493E+06 -0.1321623E+01  0.5181770E+00 -0.3710682E+00  0.3726780E+06  0.2827526E+01  0.1539830E+01  0.1536801E+01  0.2475321E+05 -0.3020183E+01  0.1831179E+01 -0.1877495E+01  0.4216394E+06  0.2874968E+01  0.1104621E+01 -0.3046301E+01
  0.2070000E+01  0.3568953E+06 -0.1789736E+01  0.2076140E+01  0.3063944E+01  0.2503946E+05 -0.1524243E+01  0.2775826E+01 -0.4379993E+00  0.3549725E+06 -0.1838768E+01  0.4188197E+00  0.1215974E+01  0.3626243E+06 -0.2298409E+01  0.2393735E+01  0.2899898E+01  0.1550730E+05 -0.1941389E+01  0.3002030E+01 -0.5947355E+00  0.4113560E+06 -0.2247828E+01  0.2103520E+01  0.1742719E+01
  0.2100000E+01  0.4866917E+06 -0.1552545E+01  0.2611195E+01  0.2725617E+01  0.1306017E+05  0.1777202E+01  0.3498340E+01 -0.9246337E+00  0.4899707E+06 -0.1606936E+01  0.1795027E+01  0.1171265E+01  0.3609919E+06 -0.1043314E+01  0.6053999E+01 -0.1921198E+01  0.1229213E+05  0.3090729E+01  0.7337562E+01  0.8064861E+00  0.4111407E+06 -0.9926475E+00  0.1053596E+01 -0.9270536E-01
  0.2130000E+01  0.2886532E+06 -0.1446141E+01  0.2752386E+01 -0.7513515E+00  0.6808898E+05 -0.2062998E+01  0.3862570E+01  0.1815340E+01  0.2937874E+06 -0.1500193E+01  0.2798327E+00 -0.1843160E-01  0.3573870E+06  0.1783594E+00  0.3273274E+01  0.2301403E+01  0.4089088E+05  0.6536087E+00  0.3689790E+01 -0.1225597E+01  0.4080957E+06  0.2316014E+00  0.2083694E+01  0.4818572E+00
  0.2160000E+01  0.3902091E+06 -0.1871756E+01  0.6670718E+00 -0.3919476E+00  0.3226069E+05 -0.1681331E+01  0.8894741E+00  0.2225678E+01  0.4002542E+06 -0.1937753E+01  0.1058124E+01 -0.1274129E+01  0.3599846E+06  0.1440844E+01  0.1050363E+01 -0.2526092E+01  0.2498894E+05  0.1932174E+01  0.1100057E+01  0.2622715E+00  0.4125575E+06  0.1492822E+01  0.6729494E+00  0.2012377E+01
  0.2190000E+01  0.3472604E+06 -0.1455340E+01  0.5759335E+00 -0.8531926E+00  0.2692013E+05 -0.2220440E+01  0.7484458E+00  0.1625788E+01  0.3620422E+06 -0.1523696E+01  0.1171648E+01 -0.5735973E+00  0.3398748E+06  0.2749291E+01  0.6637114E+00 -0.8902819E+00  0.1914453E+05  0.3117496E+01  0.6266506E+00  0.2021899E+01  0.3915941E+06  0.2799770E+01  0.1192636E+01  0.1471556E+01
  0.2220000E+01  0.2515858E+06 -0.1954513E+01  0.9985421E+00 -0.6087756E+00  0.2703514E+05 -0.1836331E+01  0.1063287E+01  0.2302997E+01  0.2640796E+06 -0.2026932E+01  0.1899207E+01 -0.1541226E+01  0.3374085E+06 -0.2280575E+01  0.4848298E+00  0.2182593E+00  0.1567556E+05 -0.1953171E+01  0.4804730E+00 -0.3008067E+01  0.3909087E+06 -0.2231192E+01  0.5551317E+00 -0.2164273E+01
  0.2250000E+01  0.3549707E+06 -0.1721664E+01  0.2290048E+00 -0.7156582E+00  0.1556224E+05 -0.2172586E+01  0.2520747E+00  0.2020150E+01  0.3795730E+06 -0.1800005E+01  0.1120204E+01 -0.9557409E+00  0.3316980E+06 -0.9147481E+00  0.3178755E+00  0.1882255E+01  0.1494116E+05 -0.6218864E+00  0.3155937E+00 -0.1407619E+01  0.3869674E+06 -0.8671461E+00  0.6831220E+00 -0.5604556E+00
  0.2280000E+01  0.2004149E+06 -0.1741027E+01  0.5774248E+00 -0.1040381E+01  0.2309918E+05 -0.2130327E+01  0.6545390E+00  0.1901681E+01  0.2165999E+06 -0.1817454E+01  0.1565781E+01 -0.8909417E+00  0.3116608E+06  0.3724938E+00  0.2349358E+00 -0.3014209E+01  0.1359788E+05  0.6100996E+00  0.2486922E+00 -0.1064699E+00  0.3664504E+06  0.4187219E+00  0.7252371E+00  0.5850616E+00
  0.2310000E+01  0.3034674E+06 -0.2024472E+01  0.1815070E+00 -0.1405179E+00  0.1351637E+05 -0.1933291E+01  0.1493982E+00  0.3062047E+01  0.3334638E+06 -0.2110341E+01  0.1089187E+01 -0.9732509E+00  0.3205492E+06  0.1742969E+01  0.1605082E+00 -0.1094168E+01  0.1259754E+05  0.1923003E+01  0.1616796E+00  0.1715317E+01  0.3797671E+06  0.1787199E+01  0.5923679E+00  0.2274796E+01
  0.2340000E+01  0.2156457E+06 -0.1677766E+01  0.4062794E+00 -0.8552203E+00  0.1765844E+05 -0.2384454E+01  0.4006159E+00  0.2011515E+01  0.2407650E+06 -0.1760443E+01  0.7279324E+00 -0.1603670E+01  0.2917301E+06  0.3112719E+01  0.1073746E+00  0.2527939E+00  0.1117439E+05 -0.3020784E+01  0.1146481E+00 -0.3020985E+01  0.3487461E+06 -0.3127585E+01  0.4335617E+00 -0.2655908E+01