VARIABLES="w (rad/s)"
"abs(F   1   1)" "angle(F   1   1)"
"abs(F   1   2)" "angle(F   1   2)"
"abs(F   1   3)" "angle(F   1   3)"
"abs(F   1   4)" "angle(F   1   4)"
"abs(F   1   5)" "angle(F   1   5)"
"abs(F   1   6)" "angle(F   1   6)"
Zone t="FKforce - beta =   0.000",I=   420,F=POINT
  0.2000000E-01  0.2316009E+04 -0.1570796E+01  0.8042164E+00 -0.3141592E+01  0.7698606E+06  0.8681014E-11  0.9505844E+00 -0.4154084E-05  0.4630708E+04 -0.1570801E+01  0.8731149E-10 -0.1570796E+01
  0.4000000E-01  0.4635683E+04 -0.1570796E+01  0.8479156E+00 -0.3141591E+01  0.7695547E+06 -0.4598797E-10  0.6772614E-01  0.4576434E-04  0.9268747E+04 -0.1570796E+01  0.1117591E-07  0.3138988E+01
  0.5999999E-01  0.6962698E+04 -0.1570798E+01  0.4676533E+00  0.3141573E+01  0.7690413E+06  0.1002916E-09  0.4568710E+00 -0.1304627E-06  0.1392150E+05 -0.1570797E+01  0.7512228E-08  0.3013393E+01
  0.8000000E-01  0.9300830E+04 -0.1570796E+01  0.8220692E+00  0.3806546E-05  0.7683239E+06 -0.4743864E-10  0.1277130E+01  0.4293711E-05  0.1859645E+05 -0.1570796E+01  0.1920853E-08  0.1570796E+01
  0.9999999E-01  0.1165394E+05 -0.1570797E+01  0.3338356E+00  0.3374499E-04  0.7674018E+06 -0.2935953E-10  0.1256027E+01  0.1471102E-04  0.2330130E+05 -0.1570798E+01  0.1133974E-07 -0.2971381E+01
  0.1200000E+00  0.1402590E+05 -0.1570796E+01  0.1081581E+00 -0.3582073E-04  0.7662736E+06 -0.2971389E-10  0.1201813E+01  0.3141560E+01  0.2804393E+05 -0.1570797E+01  0.1443656E-07  0.6854458E+00
  0.1400000E+00  0.1642087E+05 -0.1570797E+01  0.2688770E+00 -0.3141591E+01  0.7649422E+06  0.6818039E-10  0.2155838E+00  0.3141533E+01  0.3283255E+05 -0.1570796E+01  0.9313226E-09  0.1570796E+01
  0.1600000E+00  0.1884310E+05 -0.1570796E+01  0.6985073E+00 -0.3141579E+01  0.7634058E+06 -0.6862992E-10  0.5094299E+00  0.3141527E+01  0.3767560E+05 -0.1570796E+01  0.3492460E-09  0.1570796E+01
  0.1800000E+00  0.2129710E+05 -0.1570796E+01  0.2058582E+00  0.3141504E+01  0.7616648E+06  0.9234178E-11  0.3556671E+00 -0.1588710E-03  0.4258218E+05 -0.1570796E+01  0.7217750E-08 -0.1570796E+01
  0.2000000E+00  0.2378749E+05 -0.1570796E+01  0.4503536E+00 -0.3141493E+01  0.7597207E+06 -0.2713008E-09  0.9503021E+00 -0.6297267E-04  0.4756159E+05 -0.1570796E+01  0.8960200E-08  0.1142018E+01
  0.2200000E+00  0.2631938E+05 -0.1570796E+01  0.1630793E-02  0.3138084E+01  0.7575741E+06 -0.1815895E-09  0.8552017E+00 -0.2815742E-04  0.5262384E+05 -0.1570796E+01  0.1762760E-07 -0.1357858E+01
  0.2400000E+00  0.2889801E+05 -0.1570796E+01  0.1355686E+00  0.3543692E-03  0.7552220E+06  0.1138075E-09  0.6611786E+00  0.3141553E+01  0.5777955E+05 -0.1570797E+01  0.1045472E-07 -0.7775243E+00
  0.2600000E+00  0.3152911E+05 -0.1570796E+01  0.7380867E+00  0.2454971E-04  0.7526714E+06  0.1224290E-09  0.7338257E+00 -0.6010615E-04  0.6304027E+05 -0.1570796E+01  0.1396984E-07  0.1570796E+01
  0.2800000E+00  0.3421854E+05 -0.1570796E+01  0.2499447E+00  0.3100127E-04  0.7499161E+06 -0.1891666E-10  0.1643265E+01  0.3141564E+01  0.6841774E+05 -0.1570796E+01  0.1164153E-07  0.2837941E+00
  0.3000000E+00  0.3697281E+05 -0.1570796E+01  0.2430439E+00 -0.3139101E-04  0.7469604E+06 -0.4787775E-12  0.1061974E+01  0.8306692E-05  0.7392461E+05 -0.1570796E+01  0.2002344E-07  0.1570796E+01
  0.3200000E+00  0.3979870E+05 -0.1570796E+01  0.1463223E+00  0.3141578E+01  0.7438037E+06  0.4008348E-09  0.7286453E+00 -0.3664730E-04  0.7957504E+05 -0.1570796E+01  0.9080395E-08 -0.1570796E+01
  0.3400000E+00  0.4270368E+05 -0.1570796E+01  0.4439392E+00  0.3141537E+01  0.7404483E+06  0.1561662E-09  0.1218185E+00  0.2935742E-03  0.8538320E+05 -0.1570796E+01  0.2611131E-07  0.1713954E+01
  0.3600000E+00  0.4569536E+05 -0.1570796E+01  0.1967030E+00  0.3139272E-03  0.7368952E+06 -0.1740671E-09  0.5760957E-01  0.4635147E-03  0.9136494E+05 -0.1570796E+01  0.1121461E-07  0.2297439E+01
  0.3800000E+00  0.4878184E+05 -0.1570796E+01  0.2440777E+00  0.3141315E+01  0.7331436E+06 -0.6819452E-09  0.6510239E+00 -0.1435586E-03  0.9753603E+05 -0.1570796E+01  0.1229381E-07  0.9197196E+00
  0.4000000E+00  0.5197185E+05 -0.1570796E+01  0.5837917E+00  0.3141439E+01  0.7291968E+06 -0.1536715E-10  0.1633987E+00 -0.3210067E-04  0.1039140E+06 -0.1570796E+01  0.3270256E-07 -0.1919567E+01
  0.4200000E+00  0.5527422E+05 -0.1570796E+01  0.3724995E+00  0.6336503E-04  0.7250553E+06 -0.6247735E-11  0.1958771E+00  0.3141349E+01  0.1105168E+06 -0.1570796E+01  0.2794356E-07 -0.1982253E+01
  0.4400000E+00  0.5869820E+05 -0.1570796E+01  0.1901226E+00  0.2219625E-03  0.7207224E+06 -0.1025496E-10  0.8765717E+00 -0.1202195E-03  0.1173628E+06 -0.1570796E+01  0.5089360E-07 -0.1644059E+01
  0.4600000E+00  0.6225308E+05 -0.1570796E+01  0.5046280E-01  0.3139873E+01  0.7161978E+06  0.3565304E-09  0.8431091E+00 -0.3141510E+01  0.1244706E+06 -0.1570796E+01  0.3890432E-07 -0.1378096E+01
  0.4800000E+00  0.6594809E+05 -0.1570796E+01  0.4856684E-01  0.9179984E-03  0.7114852E+06  0.5663187E-09  0.9211044E+00 -0.3141578E+01  0.1318585E+06 -0.1570796E+01  0.4656613E-08 -0.2498091E+01
  0.5000000E+00  0.6979212E+05 -0.1570796E+01  0.3763676E+00 -0.2502217E-03  0.7065862E+06  0.3785888E-09  0.2215652E+00  0.1291278E-03  0.1395444E+06 -0.1570796E+01  0.6715862E-07  0.1626295E+01
  0.5200000E+00  0.7379381E+05 -0.1570796E+01  0.1863079E+00 -0.3141347E+01  0.7015022E+06 -0.1293880E-08  0.4377004E-01 -0.3138520E+01  0.1475452E+06 -0.1570796E+01  0.7645926E-07  0.1522054E+01
  0.5399999E+00  0.7796035E+05 -0.1570796E+01  0.2393570E+00 -0.3141505E+01  0.6962399E+06  0.1986137E-10  0.1642227E+00 -0.5052264E-03  0.1558756E+06 -0.1570796E+01  0.4423782E-07 -0.1570796E+01
  0.5599999E+00  0.8229810E+05 -0.1570796E+01  0.8447780E-02  0.5616333E-02  0.6907997E+06 -0.7731005E-10  0.6274338E+00  0.2059546E-03  0.1645491E+06 -0.1570796E+01  0.2421439E-07 -0.1570796E+01
  0.5799999E+00  0.8681174E+05 -0.1570796E+01  0.4333893E-01  0.3138952E+01  0.6851846E+06 -0.8121446E-09  0.5861053E+00 -0.3141534E+01  0.1735736E+06 -0.1570796E+01  0.3911555E-07 -0.1570796E+01
  0.5999999E+00  0.9150401E+05 -0.1570796E+01  0.1573391E+00  0.8182711E-04  0.6793996E+06 -0.1150333E-08  0.1026993E+01 -0.1755070E-03  0.1829553E+06 -0.1570796E+01  0.2142042E-07 -0.1570796E+01
  0.6199999E+00  0.9637539E+05 -0.1570796E+01  0.2615561E-01  0.3245085E-02  0.6734460E+06 -0.1122268E-08  0.5739288E+00  0.4154149E-04  0.1926954E+06 -0.1570796E+01  0.8507723E-07  0.1658483E+01
  0.6399999E+00  0.1014241E+06 -0.1570796E+01  0.2044240E+00 -0.7767523E-03  0.6673289E+06 -0.7274078E-09  0.2471008E+00  0.1929727E-04  0.2027892E+06 -0.1570796E+01  0.2444611E-07  0.1261093E+01
  0.6599999E+00  0.1066458E+06 -0.1570796E+01  0.1609612E-01  0.1007228E-02  0.6610532E+06  0.7213294E-09  0.5608826E+00 -0.5100930E-03  0.2132298E+06 -0.1570796E+01  0.6715862E-07 -0.1626295E+01
  0.6799999E+00  0.1120344E+06 -0.1570796E+01  0.1182327E+00 -0.5162289E-03  0.6546214E+06 -0.8449634E-10  0.1556969E+00  0.3140704E+01  0.2240037E+06 -0.1570796E+01  0.3259629E-07 -0.1570796E+01
  0.6999999E+00  0.1175809E+06 -0.1570796E+01  0.4128247E+00  0.5024510E-03  0.6480359E+06 -0.2943276E-10  0.8175125E+00  0.3141401E+01  0.2350936E+06 -0.1570796E+01  0.4623902E-07  0.1732634E+01
  0.7199998E+00  0.1232756E+06 -0.1570796E+01  0.1378632E+00 -0.7747646E-03  0.6413044E+06  0.9725537E-09  0.9189568E+00  0.8094679E-04  0.2464792E+06 -0.1570796E+01  0.1108274E-06 -0.1570796E+01
  0.7399999E+00  0.1291072E+06 -0.1570796E+01  0.2649212E+00  0.6839699E-04  0.6344258E+06  0.1046985E-08  0.7254808E-01  0.2195285E-02  0.2581392E+06 -0.1570796E+01  0.2142042E-07  0.1570796E+01
  0.7599999E+00  0.1350633E+06 -0.1570796E+01  0.7393169E+00 -0.3141547E+01  0.6274055E+06  0.3169260E-09  0.5453949E+00  0.3182441E-03  0.2700477E+06 -0.1570796E+01  0.9227616E-07  0.1530414E+01
  0.7799999E+00  0.1411310E+06 -0.1570796E+01  0.1593491E-01  0.1885327E-01  0.6202481E+06 -0.5319989E-09  0.8485489E+00 -0.3141260E+01  0.2821791E+06 -0.1570796E+01  0.2986047E-07  0.1633215E+01
  0.8000000E+00  0.1472976E+06 -0.1570796E+01  0.1326504E+00 -0.3141154E+01  0.6129553E+06 -0.2482379E-08  0.1126732E+01 -0.1862097E-04  0.2945086E+06 -0.1570796E+01  0.1928647E-06  0.1541819E+01
  0.8199999E+00  0.1535502E+06 -0.1570796E+01  0.6601724E-01 -0.3139975E+01  0.6055333E+06  0.5488641E-09  0.8978539E+00  0.3141173E+01  0.3070099E+06 -0.1570796E+01  0.8786079E-08  0.2582993E+01
  0.8399999E+00  0.1598765E+06 -0.1570796E+01  0.2874852E+00 -0.3140873E+01  0.5979841E+06 -0.7009215E-09  0.1959862E+01  0.1834493E-03  0.3196590E+06 -0.1570796E+01  0.1160235E-06 -0.1667270E+01
  0.8599999E+00  0.1662648E+06 -0.1570796E+01  0.5339565E+00  0.3141419E+01  0.5903110E+06  0.1179348E-09  0.5322381E+00  0.6593894E-03  0.3324315E+06 -0.1570796E+01  0.1928198E-06  0.1551475E+01
  0.8799999E+00  0.1727025E+06 -0.1570796E+01  0.2395707E+00  0.3140805E+01  0.5825178E+06 -0.9217205E-09  0.1719692E+01 -0.4713768E-03  0.3453036E+06 -0.1570796E+01  0.3725290E-08  0.3141593E+01
  0.8999999E+00  0.1791799E+06 -0.1570796E+01  0.1244145E+00  0.2529550E-03  0.5746088E+06  0.7717573E-09  0.3819237E+00 -0.3196196E-03  0.3582531E+06 -0.1570796E+01  0.8570192E-07 -0.1549061E+01
  0.9199999E+00  0.1856855E+06 -0.1570796E+01  0.5716629E+00 -0.3186350E-03  0.5665868E+06 -0.6042660E-09  0.2399446E+00 -0.1144674E-02  0.3712612E+06 -0.1570796E+01  0.3799066E-07 -0.1373401E+01
  0.9399999E+00  0.1922091E+06 -0.1570796E+01  0.1220384E+00  0.3032046E-02  0.5584597E+06 -0.9323970E-09  0.7548448E+00 -0.3141054E+01  0.3843044E+06 -0.1570796E+01  0.4097819E-07  0.1570796E+01
  0.9599999E+00  0.1987406E+06 -0.1570796E+01  0.3534565E+00 -0.2913989E-03  0.5502251E+06 -0.2714260E-08  0.4716187E+00  0.3680277E-03  0.3973634E+06 -0.1570796E+01  0.1856698E-06 -0.1631025E+01
  0.9799999E+00  0.2052703E+06 -0.1570796E+01  0.4990866E+00 -0.8713429E-03  0.5418934E+06 -0.1900684E-08  0.2258988E+00 -0.7345738E-03  0.4104186E+06 -0.1570796E+01  0.2428592E-07 -0.1647568E+01
  0.9999999E+00  0.2117892E+06 -0.1570796E+01  0.6509151E+00  0.8204720E-04  0.5334654E+06 -0.1973617E-08  0.4742815E+00 -0.3140672E+01  0.4234526E+06 -0.1570796E+01  0.1666000E-07  0.1107149E+01
  0.1020000E+01  0.2182874E+06 -0.1570796E+01  0.1709234E+00 -0.1417204E-02  0.5249469E+06 -0.3633413E-10  0.1123177E+01 -0.1426466E-03  0.4364439E+06 -0.1570796E+01  0.1271520E-06  0.1482789E+01
  0.1040000E+01  0.2247557E+06 -0.1570796E+01  0.5330486E+00  0.2290041E-03  0.5163407E+06 -0.7129369E-09  0.7865830E+00 -0.3141265E+01  0.4493776E+06 -0.1570796E+01  0.1621464E-06 -0.1605265E+01
  0.1060000E+01  0.2311851E+06 -0.1570796E+01  0.3262256E+00  0.3140224E+01  0.5076538E+06 -0.5316416E-09  0.2427831E-01  0.3130201E+01  0.4622327E+06 -0.1570796E+01  0.2356080E-07  0.1249046E+01
  0.1080000E+01  0.2375665E+06 -0.1570796E+01  0.2194101E+00  0.3140580E+01  0.4988883E+06 -0.3935982E-08  0.1019592E+00  0.5612092E-03  0.4749903E+06 -0.1570796E+01  0.1686697E-07 -0.1681454E+01
  0.1100000E+01  0.2438898E+06 -0.1570796E+01  0.7380962E+00 -0.3141414E+01  0.4900526E+06 -0.3656656E-08  0.3303032E+00  0.3141246E+01  0.4876333E+06 -0.1570796E+01  0.1695109E-06 -0.1559808E+01
  0.1120000E+01  0.2501470E+06 -0.1570796E+01  0.1084023E+00  0.7213990E-03  0.4811483E+06 -0.1187266E-08  0.6922942E-02  0.6479047E-01  0.5001433E+06 -0.1570796E+01  0.1435325E-06 -0.1609738E+01
  0.1140000E+01  0.2563290E+06 -0.1570796E+01  0.2391397E+00 -0.3140384E+01  0.4721811E+06 -0.4182843E-08  0.5726662E+00  0.3141569E+01  0.5125033E+06 -0.1570796E+01  0.3297092E-06  0.1582095E+01
  0.1160000E+01  0.2624250E+06 -0.1570796E+01  0.8499260E-01 -0.3136397E+01  0.4631565E+06  0.1987008E-08  0.8049698E+00  0.3141195E+01  0.5246923E+06 -0.1570796E+01  0.7878351E-07 -0.1452306E+01
  0.1180000E+01  0.2684275E+06 -0.1570796E+01  0.4178066E+00 -0.2168445E-03  0.4540786E+06 -0.2992843E-08  0.7827016E+00  0.3139334E+01  0.5366930E+06 -0.1570796E+01  0.2927258E-06  0.1526240E+01
  0.1200000E+01  0.2743264E+06 -0.1570796E+01  0.1184652E+01  0.3141120E+01  0.4449520E+06 -0.1793959E-08  0.2594576E+00  0.2697928E-02  0.5484874E+06 -0.1570796E+01  0.2945101E-07  0.1892547E+01
  0.1220000E+01  0.2801132E+06 -0.1570796E+01  0.4858303E+00  0.3141520E+01  0.4357851E+06 -0.2302202E-08  0.7238389E+00 -0.3141008E+01  0.5600589E+06 -0.1570796E+01  0.3339334E-06 -0.1514988E+01
  0.1240000E+01  0.2857792E+06 -0.1570796E+01  0.1823771E+00 -0.1532137E-02  0.4265796E+06 -0.4437727E-08  0.9127197E+00  0.1128461E-03  0.5713842E+06 -0.1570796E+01  0.1175829E-06  0.1507389E+01
  0.1260000E+01  0.2913127E+06 -0.1570796E+01  0.2129689E+00 -0.3141100E+01  0.4173422E+06  0.2655302E-08  0.6499882E+00  0.3139163E+01  0.5824478E+06 -0.1570796E+01  0.2030625E-06 -0.1552450E+01
  0.1280000E+01  0.2967066E+06 -0.1570796E+01  0.2831069E+00 -0.9364713E-03  0.4080777E+06 -0.2580039E-08  0.1687303E+00 -0.2554735E-02  0.5932326E+06 -0.1570796E+01  0.2905786E-06  0.1577206E+01
  0.1300000E+01  0.3019512E+06 -0.1570796E+01  0.1917895E-01 -0.1889664E-01  0.3987920E+06  0.4825861E-08  0.2904991E+00 -0.1510127E-02  0.6037186E+06 -0.1570796E+01  0.4123141E-07 -0.1249046E+01
  0.1320000E+01  0.3070371E+06 -0.1570796E+01  0.3256134E+00 -0.1605013E-02  0.3894894E+06  0.4701167E-09  0.8610733E+00 -0.3140317E+01  0.6138874E+06 -0.1570796E+01  0.2161391E-06 -0.1596653E+01
  0.1340000E+01  0.3119565E+06 -0.1570796E+01  0.3710253E+00 -0.3140621E+01  0.3801775E+06  0.1966662E-08  0.1023449E+00  0.1252404E-01  0.6237219E+06 -0.1570796E+01  0.4427457E-07 -0.1315614E+01
  0.1360000E+01  0.3166990E+06 -0.1570796E+01  0.3200140E+00  0.3141557E+01  0.3708589E+06 -0.4433315E-08  0.1672418E-01  0.2737479E-01  0.6332051E+06 -0.1570796E+01  0.3725290E-08  0.0000000E+00
  0.1380000E+01  0.3212572E+06 -0.1570796E+01  0.5005227E+00 -0.6821177E-03  0.3615402E+06 -0.5729322E-08  0.9133130E+00 -0.3007274E-03  0.6423180E+06 -0.1570796E+01  0.2030369E-06 -0.1561622E+01
  0.1400000E+01  0.3256207E+06 -0.1570796E+01  0.7433359E-02 -0.6496374E-01  0.3522281E+06 -0.5079359E-08  0.2608422E-01 -0.3126090E+01  0.6510424E+06 -0.1570796E+01  0.3171970E-07 -0.1629552E+01
  0.1420000E+01  0.3297822E+06 -0.1570796E+01  0.1900553E+00 -0.2057331E-02  0.3429260E+06 -0.2324909E-08  0.9882739E-01 -0.3140821E+01  0.6593626E+06 -0.1570796E+01  0.2712052E-07 -0.1292497E+01
  0.1440000E+01  0.3337322E+06 -0.1570796E+01  0.5676731E+00  0.3140440E+01  0.3336410E+06 -0.2138072E-08  0.4136467E+00  0.0000000E+00  0.6672619E+06 -0.1570796E+01  0.9329975E-07  0.1510868E+01
  0.1460000E+01  0.3374634E+06 -0.1570796E+01  0.2058392E+00  0.7227642E-03  0.3243767E+06 -0.3139943E-08  0.3185253E+00 -0.2634746E-03  0.6747192E+06 -0.1570796E+01  0.1090085E-07  0.2792822E+01
  0.1480000E+01  0.3409661E+06 -0.1570796E+01  0.4995060E-01 -0.3135407E+01  0.3151406E+06 -0.5495556E-08  0.2610607E+00  0.3141213E+01  0.6817235E+06 -0.1570796E+01  0.3782316E-06 -0.1595422E+01
  0.1500000E+01  0.3442343E+06 -0.1570796E+01  0.2338795E+00  0.1769693E-02  0.3059371E+06  0.3229444E-08  0.8827028E-01 -0.1426132E-02  0.6882562E+06 -0.1570796E+01  0.2087181E-06  0.1602036E+01
  0.1520000E+01  0.3472577E+06 -0.1570796E+01  0.7054361E-01  0.3138564E+01  0.2967716E+06 -0.4665996E-08  0.1003809E+01  0.3141144E+01  0.6943032E+06 -0.1570796E+01  0.7127508E-07  0.1452924E+01
  0.1540000E+01  0.3500310E+06 -0.1570796E+01  0.8242994E-01  0.3138006E+01  0.2876501E+06 -0.7492797E-09  0.9550773E+00 -0.3141062E+01  0.6998473E+06 -0.1570796E+01  0.3222389E-06  0.1573686E+01
  0.1560000E+01  0.3525460E+06 -0.1570796E+01  0.2470135E+00 -0.3138921E+01  0.2785780E+06  0.3074182E-08  0.4878070E+00 -0.3138332E+01  0.7048752E+06 -0.1570796E+01  0.1099316E-06 -0.1545378E+01
  0.1580000E+01  0.3547947E+06 -0.1570796E+01  0.1250553E+00 -0.3137642E+01  0.2695606E+06 -0.7188981E-08  0.3528471E+00  0.2162238E-03  0.7093706E+06 -0.1570796E+01  0.5452812E-07 -0.1433730E+01
  0.1600000E+01  0.3567722E+06 -0.1570796E+01  0.5102545E-01 -0.3135275E+01  0.2606029E+06 -0.8138711E-08  0.3744575E+00  0.3140747E+01  0.7133245E+06 -0.1570796E+01  0.7279226E-07  0.1506781E+01
  0.1620000E+01  0.3584695E+06 -0.1570796E+01  0.3785125E-02 -0.5495345E-01  0.2517105E+06 -0.8502008E-08  0.1307953E+00 -0.3470689E-02  0.7167184E+06 -0.1570796E+01  0.2160668E-06  0.1570796E+01
  0.1640000E+01  0.3598824E+06 -0.1570796E+01  0.5437820E-01 -0.3128123E+01  0.2428892E+06 -0.5277049E-08  0.5804468E+00 -0.1465557E-02  0.7195432E+06 -0.1570796E+01  0.1974426E-06 -0.1575513E+01
  0.1660000E+01  0.3610041E+06 -0.1570796E+01  0.2510786E+00 -0.3141380E+01  0.2341433E+06 -0.4822476E-08  0.4606054E+00  0.1159469E-02  0.7217867E+06 -0.1570796E+01  0.1397054E-06  0.1560797E+01
  0.1680000E+01  0.3618294E+06 -0.1570796E+01  0.2331487E+00 -0.3138173E+01  0.2254793E+06 -0.4813219E-08  0.2083023E+00  0.3136520E+01  0.7234366E+06 -0.1570796E+01  0.1417333E-06  0.1521494E+01
  0.1700000E+01  0.3623536E+06 -0.1570796E+01  0.1588802E+00  0.1656684E-02  0.2169008E+06 -0.3877998E-08  0.1852351E+00 -0.5972208E-03  0.7244822E+06 -0.1570796E+01  0.1381194E-06 -0.1506695E+01
  0.1720000E+01  0.3625701E+06 -0.1570796E+01  0.2829940E+00 -0.8761857E-04  0.2084142E+06 -0.4035909E-08  0.9654390E+00 -0.3141000E+01  0.7249165E+06 -0.1570796E+01  0.7824807E-07  0.1591627E+01
  0.1740000E+01  0.3624763E+06 -0.1570796E+01  0.3702378E+00  0.3141011E+01  0.2000235E+06  0.1017451E-07  0.5727305E+00  0.3140807E+01  0.7247282E+06 -0.1570796E+01  0.2125115E-06 -0.1610797E+01
  0.1760000E+01  0.3620675E+06 -0.1570796E+01  0.1949778E+00 -0.3141084E+01  0.1917345E+06  0.1939833E-08  0.3496382E+00  0.3141495E+01  0.7239106E+06 -0.1570796E+01  0.1080359E-06  0.1577531E+01
  0.1780000E+01  0.3613398E+06 -0.1570796E+01  0.2760647E+00 -0.6218158E-03  0.1835518E+06 -0.5112539E-08  0.3962001E+00 -0.2503337E-02  0.7224569E+06 -0.1570796E+01  0.1938171E-06  0.1603237E+01
  0.1800000E+01  0.3602912E+06 -0.1570796E+01  0.2688565E+00 -0.3140067E+01  0.1754802E+06 -0.4325984E-08  0.2133221E+00 -0.2861178E-02  0.7203593E+06 -0.1570796E+01  0.6709563E-07 -0.1605505E+01
  0.1820000E+01  0.3589183E+06 -0.1570796E+01  0.2281730E+00  0.3138032E+01  0.1675246E+06 -0.1172705E-07  0.1256132E+00 -0.2854651E-02  0.7176161E+06 -0.1570796E+01  0.2738097E-06 -0.1568245E+01
  0.1840000E+01  0.3572190E+06 -0.1570796E+01  0.3648348E-01  0.6064492E-02  0.1596892E+06 -0.5374859E-09  0.1334213E-02  0.1289404E+01  0.7142194E+06 -0.1570796E+01  0.4844892E-07 -0.1599635E+01
  0.1860000E+01  0.3551918E+06 -0.1570796E+01  0.2780369E-01  0.4165258E-01  0.1519785E+06 -0.1371728E-07  0.7688798E-01 -0.3131769E+01  0.7101659E+06 -0.1570796E+01  0.2644973E-06 -0.1567275E+01
  0.1880000E+01  0.3528368E+06 -0.1570796E+01  0.4738933E+00 -0.1569692E-02  0.1443967E+06 -0.1169004E-07  0.2229803E+00 -0.2634601E-02  0.7054546E+06 -0.1570796E+01  0.1788236E-06  0.1581213E+01
  0.1900000E+01  0.3501517E+06 -0.1570796E+01  0.8016787E-01 -0.3140046E+01  0.1369486E+06 -0.5793833E-08  0.4176541E+00  0.3137866E+01  0.7000889E+06 -0.1570796E+01  0.1882401E-06  0.1536157E+01
  0.1920000E+01  0.3471375E+06 -0.1570796E+01  0.1030276E+00  0.3139501E+01  0.1296376E+06 -0.5885169E-09  0.5732030E+00 -0.4032974E-02  0.6940625E+06 -0.1570796E+01  0.2123742E-06  0.1588338E+01
  0.1940000E+01  0.3437953E+06 -0.1570796E+01  0.1682640E+00 -0.4896935E-02  0.1224682E+06  0.9157648E-08  0.4524159E+00  0.1416549E-02  0.6873793E+06 -0.1570796E+01  0.6780131E-08  0.2863293E+01
  0.1960000E+01  0.3401253E+06 -0.1570796E+01  0.1548752E+00  0.4174930E-02  0.1154443E+06 -0.2329574E-07  0.1623001E+00 -0.3141452E+01  0.6800419E+06 -0.1570796E+01  0.4664987E-07 -0.1510868E+01
  0.1980000E+01  0.3361308E+06 -0.1570796E+01  0.2017078E-01  0.3840080E-01  0.1085693E+06 -0.2696691E-07  0.2276325E+00 -0.4088997E-02  0.6720544E+06 -0.1570796E+01  0.1863018E-06 -0.1550799E+01
  0.2000000E+01  0.3318123E+06 -0.1570796E+01  0.4644394E-01  0.4106776E-03  0.1018465E+06 -0.9401298E-08  0.1102319E-01 -0.3055664E+01  0.6634210E+06 -0.1570796E+01  0.4899854E-07  0.1723446E+01
  0.2020000E+01  0.3271744E+06 -0.1570796E+01  0.9375815E-01 -0.7201585E-02  0.9528004E+05 -0.1004921E-07  0.2637835E+00  0.6059392E-02  0.6541469E+06 -0.1570796E+01  0.1384511E-07  0.1913820E+01
  0.2040000E+01  0.3222205E+06 -0.1570796E+01  0.1630214E+00 -0.1895400E-02  0.8887248E+05  0.1083812E-07  0.1966836E+00 -0.3137520E+01  0.6442434E+06 -0.1570796E+01  0.1601875E-06 -0.1570796E+01
  0.2060000E+01  0.3169548E+06 -0.1570796E+01  0.5787313E-02  0.2834717E-01  0.8262707E+05  0.8494847E-08  0.2436902E-01 -0.3118579E+01  0.6337152E+06 -0.1570796E+01  0.1490233E-06 -0.1583296E+01
  0.2080000E+01  0.3113832E+06 -0.1570796E+01  0.2014390E+00 -0.3200398E-02  0.7654655E+05  0.3413697E-08  0.2841225E+00 -0.3140989E+01  0.6225742E+06 -0.1570796E+01  0.1732260E-06  0.1570796E+01
  0.2100000E+01  0.3055106E+06 -0.1570796E+01  0.7238314E-01  0.1641724E-01  0.7063385E+05  0.1444678E-07  0.2792031E-01 -0.3025059E+01  0.6108331E+06 -0.1570796E+01  0.3252970E-07  0.1158386E+01
  0.2120000E+01  0.2993435E+06 -0.1570796E+01  0.1915642E-01 -0.9757731E-02  0.6489120E+05  0.2821731E-08  0.2182448E+00  0.3140212E+01  0.5985025E+06 -0.1570796E+01  0.1249500E-07  0.1107149E+01
  0.2140000E+01  0.2928892E+06 -0.1570796E+01  0.2836528E-02  0.1627719E+00  0.5932090E+05 -0.1736266E-07  0.1884270E+00 -0.3140975E+01  0.5855991E+06 -0.1570796E+01  0.2758979E-06 -0.1611315E+01
  0.2160000E+01  0.2861557E+06 -0.1570796E+01  0.7547883E-01  0.7606338E-02  0.5392520E+05  0.1595199E-07  0.1446910E+00 -0.6841624E-02  0.5721354E+06 -0.1570796E+01  0.1735861E-06 -0.1635223E+01
  0.2180000E+01  0.2791512E+06 -0.1570796E+01  0.1111294E+00 -0.3136384E+01  0.4870574E+05 -0.1842509E-07  0.1639738E+00  0.5909107E-02  0.5581314E+06 -0.1570796E+01  0.3071953E-07  0.1815775E+01
  0.2200000E+01  0.2718846E+06 -0.1570796E+01  0.5949471E-01  0.1468361E-01  0.4366447E+05 -0.2675518E-07  0.2744052E-01 -0.5104138E-01  0.5436009E+06 -0.1570796E+01  0.1173614E-06  0.1554925E+01
  0.2220000E+01  0.2643663E+06 -0.1570796E+01  0.8089603E-01  0.6224573E-02  0.3880260E+05  0.1843319E-07  0.2852476E-01  0.4200446E-01  0.5285715E+06 -0.1570796E+01  0.1418548E-07  0.1975688E+01
  0.2240000E+01  0.2566070E+06 -0.1570796E+01  0.4443821E-01  0.3135605E+01  0.3412136E+05  0.1204623E-07  0.1497397E+00  0.3137364E+01  0.5130551E+06 -0.1570796E+01  0.6430848E-07  0.1745468E+01
  0.2260000E+01  0.2486166E+06 -0.1570796E+01  0.4572685E-01  0.1835320E-02  0.2962192E+05  0.1622622E-07  0.5072288E-01 -0.3174253E-01  0.4970800E+06 -0.1570796E+01  0.6006850E-07  0.1695151E+01
  0.2280000E+01  0.2404085E+06 -0.1570796E+01  0.1477731E-01  0.3045738E+01  0.2530487E+05  0.4635548E-08  0.9138288E-01  0.6282531E-02  0.4806683E+06 -0.1570796E+01  0.2535662E-06  0.1614885E+01
  0.2300000E+01  0.2319941E+06 -0.1570796E+01  0.6751252E-01 -0.4379025E-03  0.2117088E+05  0.5027191E-07  0.1113217E+00  0.3136984E+01  0.4638454E+06 -0.1570796E+01  0.7455817E-07  0.1928105E+01
  0.2320000E+01  0.2233868E+06 -0.1570796E+01  0.4329776E-02 -0.8423872E-01  0.1722020E+05 -0.1052242E-07  0.1508146E+00 -0.3138861E+01  0.4466368E+06 -0.1570796E+01  0.1003065E-07  0.1190290E+01
  0.2340000E+01  0.2146005E+06 -0.1570796E+01  0.7709944E-01 -0.3137671E+01  0.1345291E+05 -0.3282198E-07  0.2442948E-01  0.3591490E-02  0.4290691E+06 -0.1570796E+01  0.1128285E-06 -0.1521250E+01
  0.2360000E+01  0.2056495E+06 -0.1570796E+01  0.3487437E-02 -0.2146826E-01  0.9868849E+04  0.4909048E-07  0.3190129E-01 -0.3111724E+01  0.4111726E+06 -0.1570796E+01  0.1771081E-06 -0.1528716E+01
  0.2380000E+01  0.1965490E+06 -0.1570796E+01  0.1814479E-01  0.3137151E+01  0.6467550E+04  0.1024814E-07  0.5809833E-01 -0.3121319E+01  0.3929760E+06 -0.1570796E+01  0.8942758E-07 -0.1466465E+01
  0.2400000E+01  0.1873134E+06 -0.1570796E+01  0.3447405E-02  0.5189243E-01  0.3248383E+04 -0.3523012E-06  0.1485639E-01 -0.3125351E+01  0.3745106E+06 -0.1570796E+01  0.2840534E-07 -0.1570796E+01
  0.2420000E+01  0.1779598E+06 -0.1570796E+01  0.2439154E-01  0.5464053E-02  0.2104649E+03 -0.3714513E-05  0.3441616E-02  0.3090029E+01  0.3558093E+06 -0.1570796E+01  0.3465972E-07  0.1463107E+01
  0.2440000E+01  0.1685039E+06 -0.1570796E+01  0.1086914E-01  0.3118207E+01  0.2647332E+04 -0.3141592E+01  0.2577264E-01 -0.6512637E-02  0.3369030E+06 -0.1570796E+01  0.6172823E-07 -0.1600976E+01
  0.2460000E+01  0.1589632E+06 -0.1570796E+01  0.6035513E-02  0.8089080E-01  0.5326434E+04 -0.3141592E+01  0.1239403E-01  0.3098470E+01  0.3178278E+06 -0.1570796E+01  0.5600339E-07  0.1637365E+01
  0.2480000E+01  0.1493553E+06 -0.1570796E+01  0.1163675E-01  0.3139785E+01  0.7828461E+04 -0.3141593E+01  0.4520418E-01  0.9454111E-03  0.2986170E+06 -0.1570796E+01  0.3581734E-07 -0.1466600E+01
  0.2500000E+01  0.1396974E+06 -0.1570796E+01  0.4703441E-02  0.2787057E-01  0.1015531E+05  0.3141593E+01  0.3716760E-02 -0.3115706E+01  0.2793068E+06 -0.1570796E+01  0.8168209E-07  0.1502332E+01
  0.2520000E+01  0.1300078E+06 -0.1570796E+01  0.9047445E-03  0.9951133E-01  0.1230908E+05  0.3141593E+01  0.3224322E-03  0.1547132E+01  0.2599337E+06 -0.1570796E+01  0.1504598E-07 -0.1190290E+01
  0.2540000E+01  0.1203052E+06 -0.1570796E+01  0.9410800E-03  0.4695392E+00  0.1429216E+05  0.3141593E+01  0.5551034E-02 -0.1529090E-01  0.2405340E+06 -0.1570796E+01  0.2887100E-07  0.1570796E+01
  0.2560000E+01  0.1106084E+06 -0.1570796E+01  0.1656491E-02  0.1554945E+00  0.1610711E+05  0.3141593E+01  0.5537024E-02 -0.3115410E+01  0.2211460E+06 -0.1570796E+01  0.2521460E-07 -0.1496857E+01
  0.2580000E+01  0.1009362E+06 -0.1570796E+01  0.1473059E-02 -0.2955688E+01  0.1775682E+05  0.3141593E+01  0.1281817E-01  0.3085912E+01  0.2018076E+06 -0.1570796E+01  0.2128332E-07 -0.1746736E+01
  0.2600000E+01  0.9130782E+05 -0.1570796E+01  0.5519429E-03 -0.2627697E+01  0.1924426E+05  0.3141593E+01  0.8340096E-02  0.1183980E+00  0.1825562E+06 -0.1570796E+01  0.2303965E-07 -0.1325818E+01
  0.2620000E+01  0.8174275E+05 -0.1570796E+01  0.1202783E-01 -0.3137707E+01  0.2057283E+05  0.3141593E+01  0.1175309E-01 -0.3140538E+01  0.1634320E+06 -0.1570796E+01  0.9313226E-08 -0.6435011E+00
  0.2640000E+01  0.7226027E+05 -0.1570796E+01  0.1174095E-01 -0.5298436E-01  0.2174596E+05 -0.3141593E+01  0.2378122E-01  0.3135818E+01  0.1444723E+06 -0.1570796E+01  0.4656613E-08  0.1570796E+01
  0.2660000E+01  0.6288012E+05 -0.1570796E+01  0.3013614E-01  0.3140074E+01  0.2276738E+05 -0.3141593E+01  0.2010538E-01  0.1385111E-01  0.1257173E+06 -0.1570796E+01  0.4111554E-07  0.1342300E+01
  0.2680000E+01  0.5362156E+05 -0.1570796E+01  0.1862105E-01 -0.1275284E-01  0.2364104E+05  0.3141593E+01  0.1064717E-01  0.6040739E-01  0.1072053E+06 -0.1570796E+01  0.9497664E-08  0.1973956E+00
  0.2700000E+01  0.4450375E+05 -0.1570796E+01  0.7612851E-02  0.9321174E-01  0.2437105E+05  0.3141593E+01  0.2900284E-01 -0.3946877E-01  0.8897503E+05 -0.1570796E+01  0.2915501E-07  0.2034444E+01
  0.2720000E+01  0.3554629E+05 -0.1570796E+01  0.7178391E-02  0.3124587E+01  0.2496184E+05  0.3141593E+01  0.6546703E-02 -0.3056709E+01  0.7106522E+05 -0.1570796E+01  0.1757216E-07 -0.5585993E+00
  0.2740000E+01  0.2676788E+05 -0.1570796E+01  0.1512151E-01 -0.3139070E+01  0.2541773E+05  0.3141593E+01  0.1069036E-02  0.1522424E+00  0.5351346E+05 -0.1570796E+01  0.2712052E-07  0.1849096E+01
  0.2760000E+01  0.1818752E+05 -0.1570796E+01  0.9041372E-02  0.3114165E+01  0.2574356E+05 -0.3141593E+01  0.1664925E-01  0.1145607E-03  0.3635758E+05 -0.1570796E+01  0.1117587E-07 -0.1570796E+01
  0.2780000E+01  0.9823479E+04 -0.1570797E+01  0.1932823E-01  0.3453877E-02  0.2594418E+05 -0.3141593E+01  0.2188727E-01 -0.3135231E+01  0.1963421E+05 -0.1570796E+01  0.1356026E-07  0.1292497E+01
  0.2799999E+01  0.1693865E+04 -0.1570796E+01  0.2226841E-01  0.3138423E+01  0.2602456E+05 -0.3141593E+01  0.7017445E-01  0.5816574E-02  0.3379622E+04 -0.1570797E+01  0.1418548E-07 -0.1165905E+01
  0.2819999E+01  0.6183765E+04  0.1570796E+01  0.5541641E-01 -0.3138288E+01  0.2598991E+05  0.3141593E+01  0.6038485E-01  0.8149418E-02  0.1237119E+05  0.1570796E+01  0.7639116E-07  0.1595182E+01
  0.2840000E+01  0.1379255E+05  0.1570796E+01  0.6170987E-01 -0.3137698E+01  0.2584545E+05 -0.3141593E+01  0.4028650E-01 -0.3128809E+01  0.2758450E+05  0.1570796E+01  0.2057359E-07 -0.1661456E+01
  0.2860000E+01  0.2111564E+05  0.1570796E+01  0.7721947E-02  0.3458057E-02  0.2559674E+05 -0.3141593E+01  0.9072389E-02 -0.1513762E-01  0.4222659E+05  0.1570796E+01  0.9497664E-08  0.1768192E+01
  0.2880000E+01  0.2813752E+05  0.1570796E+01  0.2919899E-01 -0.3136759E+01  0.2524924E+05 -0.3141593E+01  0.3197299E-03 -0.9463860E+00  0.5626637E+05  0.1570796E+01  0.2333888E-07  0.2070143E+01
  0.2900000E+01  0.3484293E+05  0.1570796E+01  0.1041755E-02  0.2563541E-01  0.2480858E+05  0.3141593E+01  0.1742578E-01  0.3136339E+01  0.6967348E+05  0.1570796E+01  0.8586370E-08 -0.7086263E+00
  0.2920000E+01  0.4121764E+05  0.1570796E+01  0.1379223E-01  0.2683177E-01  0.2428052E+05 -0.3141593E+01  0.3427565E-01 -0.5898652E-02  0.8241920E+05  0.1570796E+01  0.1210719E-07 -0.1965587E+01
  0.2940000E+01  0.4724816E+05  0.1570796E+01  0.4600582E-02  0.3136618E+01  0.2367088E+05  0.3141593E+01  0.3637860E-01  0.1195444E-01  0.9447681E+05  0.1570796E+01  0.1043746E-06  0.1606495E+01
  0.2960000E+01  0.5292193E+05  0.1570796E+01  0.5623050E-02  0.8140933E-02  0.2298552E+05 -0.3141593E+01  0.6909718E-02 -0.3064778E+01  0.1058212E+06  0.1570796E+01  0.7825327E-07  0.1546991E+01
  0.2980000E+01  0.5822741E+05  0.1570796E+01  0.1734047E-01 -0.2309877E-02  0.2223030E+05  0.3141593E+01  0.8167913E-01  0.3137343E+01  0.1164292E+06  0.1570796E+01  0.6891944E-07  0.1564040E+01
  0.3000000E+01  0.6315397E+05  0.1570796E+01  0.4427496E-02 -0.3079087E+01  0.2141123E+05  0.3141593E+01  0.1063972E+00 -0.3141485E+01  0.1262797E+06  0.1570796E+01  0.2825225E-07  0.1719686E+01
  0.3020000E+01  0.6769229E+05  0.1570796E+01  0.2137690E-01 -0.3130796E+01  0.2053428E+05 -0.3141593E+01  0.4601344E-01  0.5886217E-02  0.1353535E+06  0.1570796E+01  0.3050704E-07  0.1786154E+01