VARIABLES="w (rad/s)"
"A   1   1" "B   1   1"
"A   1   2" "B   1   2"
"A   1   3" "B   1   3"
"A   1   4" "B   1   4"
"A   1   5" "B   1   5"
"A   1   6" "B   1   6"
Zone t="Motion of body    1 in DoF   1",I=   420,F=POINT
  0.2000000E-01  0.1322689E+06  0.6642526E-02  0.4321337E-04  0.1648459E-10  0.4809126E-01  0.1105722E-03  0.6198883E-03 -0.2398792E-10  0.2644623E+06  0.1328128E-01  0.8003553E-08  0.2109424E-14
  0.4000000E-01  0.1322746E+06  0.5038976E-01 -0.2231449E-03  0.1111857E-09 -0.1484156E-02  0.1201359E-03  0.1020729E-03 -0.5738912E-09  0.2644753E+06  0.1007511E+00  0.5093170E-08  0.3463896E-13
  0.5999999E-01  0.1328909E+06  0.1758361E+00 -0.7947287E-04  0.4456524E-10  0.2325277E-01  0.1901654E-03  0.2543132E-03  0.7112249E-09  0.2657069E+06  0.3515730E+00 -0.3686485E-07  0.4085621E-13
  0.8000000E-01  0.1336343E+06  0.4242979E+00 -0.1579523E-03  0.6966729E-09  0.2974086E-01  0.3268507E-03 -0.5811453E-03  0.1586159E-08  0.2671928E+06  0.8483564E+00 -0.1164153E-07  0.2255973E-12
  0.9999999E-01  0.1333162E+06  0.8419603E+00  0.3755093E-04  0.2131856E-08  0.2647400E-01  0.3099964E-03 -0.1072884E-04  0.1695298E-08  0.2665569E+06  0.1683446E+01  0.9895303E-08  0.4227729E-12
  0.1200000E+00  0.1338383E+06  0.1487386E+01 -0.1808008E-03  0.1738954E-08  0.2709627E-01  0.4778126E-03  0.1440446E-03  0.9924406E-08  0.2676011E+06  0.2973931E+01 -0.1746230E-07  0.7673862E-12
  0.1400000E+00  0.1337796E+06  0.2419436E+01 -0.6811959E-05 -0.9822543E-09  0.1945709E-01  0.4224016E-03 -0.3193106E-03  0.4307367E-08  0.2674838E+06  0.4837507E+01 -0.6818612E-07  0.5968559E-12
  0.1600000E+00  0.1338405E+06  0.3715744E+01 -0.1337379E-03 -0.3696186E-08  0.2057850E-01  0.4768042E-03  0.1139939E-03 -0.1213630E-07  0.2676056E+06  0.7429399E+01  0.5893526E-07 -0.2643219E-11
  0.1800000E+00  0.1342431E+06  0.5468566E+01 -0.1854367E-04  0.5820766E-09  0.2848837E-01  0.8546794E-03  0.2198749E-03  0.1769513E-07  0.2684104E+06  0.1093404E+02  0.6467518E-08  0.5684342E-12
  0.2000000E+00  0.1345368E+06  0.7787151E+01  0.8046627E-04  0.2619345E-09  0.3937781E-01  0.1255916E-02  0.1072884E-03 -0.2078013E-07  0.2689976E+06  0.1556989E+02 -0.1280569E-07 -0.7275958E-11
  0.2200000E+00  0.1345410E+06  0.1078769E+02  0.1029535E-03  0.1862645E-07  0.3988905E-01  0.1351804E-02 -0.8669766E-05  0.4773028E-08  0.2690055E+06  0.2156927E+02 -0.7196584E-07  0.9094947E-12
  0.2400000E+00  0.1347195E+06  0.1464369E+02 -0.3427267E-04 -0.2386514E-07  0.3847778E-01  0.1483245E-02 -0.1788139E-03 -0.3143214E-07  0.2693628E+06  0.2927911E+02 -0.2910383E-08  0.1080025E-11
  0.2600000E+00  0.1351131E+06  0.1957730E+02  0.1118733E-03 -0.7159542E-08  0.3710756E-01  0.1605170E-02  0.3081102E-03  0.5366746E-07  0.2701498E+06  0.3914349E+02  0.1611905E-07 -0.1045919E-10
  0.2800000E+00  0.1355771E+06  0.2580404E+02  0.3576279E-04 -0.6752089E-08  0.2175782E-01  0.9655253E-03 -0.2230917E-03 -0.1280569E-07  0.2710784E+06  0.5159349E+02  0.1646445E-06  0.5115908E-11
  0.3000000E+00  0.1359635E+06  0.3360288E+02  0.1295408E-03  0.4761387E-07  0.1150529E-01  0.6629414E-03 -0.1541773E-03 -0.2700835E-07  0.2718501E+06  0.6718670E+02 -0.3259629E-07 -0.2273737E-12
  0.3200000E+00  0.1362172E+06  0.4342527E+02  0.2220273E-03  0.6938353E-07  0.1500063E-01  0.5805455E-03 -0.4395843E-04  0.5634502E-07  0.2723576E+06  0.8682589E+02 -0.1469743E-06 -0.2796696E-10
  0.3400000E+00  0.1364315E+06  0.5568612E+02  0.7012311E-06  0.3003515E-07 -0.4452818E-03 -0.3555280E-03 -0.5189110E-04 -0.1001172E-06  0.2727858E+06  0.1113406E+03 -0.4108776E-07 -0.4115464E-10
  0.3600000E+00  0.1368530E+06  0.7096846E+02 -0.2980232E-04 -0.2770685E-07  0.1907282E-01  0.9979608E-03 -0.6278356E-03  0.1396984E-08  0.2736288E+06  0.1418965E+03 -0.1125348E-06  0.2592060E-10
  0.3800000E+00  0.1374085E+06  0.8992078E+02 -0.1236012E-03  0.2663583E-06  0.1319647E-01  0.7639346E-03 -0.1204641E-03  0.2691522E-06  0.2747389E+06  0.1797901E+03  0.1715594E-07 -0.4547474E-10
  0.4000000E+00  0.1380527E+06  0.1136909E+03  0.1966953E-04  0.5122274E-07  0.1678646E-01  0.1164292E-02  0.4076958E-03 -0.2291054E-06  0.2760274E+06  0.2273169E+03  0.8149073E-07  0.1091394E-10
  0.4200000E+00  0.1386949E+06  0.1433743E+03  0.1674607E-03  0.1154840E-06  0.3141052E-01  0.2997078E-02  0.9082612E-05  0.1629815E-06  0.2773113E+06  0.2866669E+03 -0.4379434E-07 -0.1182343E-09
  0.4400000E+00  0.1392858E+06  0.1803444E+03  0.4605814E-04 -0.2486631E-06  0.1874837E-01  0.1692169E-02 -0.1712279E-03 -0.3129244E-06  0.2784929E+06  0.3605854E+03 -0.2116642E-08 -0.3637979E-11
  0.4600000E+00  0.1397520E+06  0.2255896E+03 -0.5804974E-04 -0.2831221E-06  0.1629124E-01  0.1443088E-02 -0.1928081E-03 -0.2849847E-06  0.2794250E+06  0.4510500E+03  0.2429537E-07 -0.8458301E-10
  0.4800000E+00  0.1402422E+06  0.2817540E+03 -0.1524886E-03  0.1080334E-06  0.3423343E-01  0.4393252E-02  0.7450581E-04 -0.6835908E-06  0.2804052E+06  0.5633466E+03 -0.1338776E-06 -0.1236913E-09
  0.5000000E+00  0.1409311E+06  0.3521151E+03  0.5817413E-04  0.6482005E-06  0.2157640E-01  0.2959440E-02  0.5531311E-04 -0.4321337E-06  0.2817824E+06  0.7040282E+03 -0.2048910E-07  0.2310117E-09
  0.5200000E+00  0.1417699E+06  0.4395410E+03  0.1467191E-03  0.4917383E-06  0.6197966E-02  0.1227086E-02 -0.9353345E-04 -0.2533197E-06  0.2834603E+06  0.8788285E+03 -0.4656613E-07 -0.9640644E-10
  0.5399999E+00  0.1427402E+06  0.5478583E+03 -0.7505771E-05  0.2067536E-06  0.1825580E-01  0.3855756E-02 -0.1492324E-03  0.5960464E-06  0.2853995E+06  0.1095398E+04  0.3449344E-07 -0.2073648E-09
  0.5599999E+00  0.1437468E+06  0.6789462E+03  0.2230917E-03  0.4358590E-06  0.1421827E-01  0.3480799E-02 -0.1132488E-03 -0.2212822E-05  0.2874117E+06  0.1357501E+04  0.2161999E-07  0.3601599E-09
  0.5799999E+00  0.1447567E+06  0.8399757E+03  0.4562839E-04  0.4470348E-07  0.1271634E-01  0.2137952E-02  0.1241421E-03  0.9536743E-06  0.2894314E+06  0.1679463E+04 -0.3372030E-07  0.3383320E-09
  0.5999999E+00  0.1457047E+06  0.1037931E+04 -0.3973643E-04  0.5066395E-06 -0.3381571E-02 -0.1303293E-02 -0.3258388E-03  0.3546476E-05  0.2913263E+06  0.2075259E+04  0.3492460E-07 -0.7203198E-09
  0.6199999E+00  0.1465383E+06  0.1279690E+04  0.3922371E-04  0.5215406E-06  0.7935495E-02  0.1949403E-02 -0.3076369E-05  0.4500151E-05  0.2929932E+06  0.2558639E+04  0.3004267E-08  0.2401066E-09
  0.6399999E+00  0.1474743E+06  0.1572588E+04 -0.1139939E-03 -0.7003546E-06 -0.7751585E-02 -0.2052955E-02 -0.1296401E-03  0.1102686E-05  0.2948641E+06  0.3144263E+04  0.2473826E-07 -0.6402843E-09
  0.6599999E+00  0.1485947E+06  0.1917741E+04 -0.1437737E-03 -0.2227724E-05 -0.6574574E-02 -0.1669906E-02  0.9392248E-04 -0.1877546E-05  0.2971045E+06  0.3834367E+04 -0.7337694E-07 -0.8585630E-09
  0.6799999E+00  0.1498944E+06  0.2329962E+04  0.1654906E-03  0.1534820E-05 -0.2954287E-02 -0.5121976E-03  0.1795152E-03 -0.1102686E-04  0.2997032E+06  0.4658552E+04 -0.2602225E-07 -0.1266017E-08
  0.6999999E+00  0.1513116E+06  0.2821472E+04 -0.1430512E-03 -0.1743436E-05 -0.3479549E-02 -0.8489490E-03  0.1648494E-03 -0.9596348E-05  0.3025370E+06  0.5641308E+04  0.1603205E-06 -0.2066372E-08
  0.7199998E+00  0.1527516E+06  0.3403509E+04 -0.2317959E-04  0.2577901E-05 -0.1151297E-01 -0.6519198E-02  0.6225376E-04 -0.7152557E-06  0.3054162E+06  0.6805013E+04 -0.4074537E-07 -0.2182787E-09
  0.7399999E+00  0.1542185E+06  0.4091073E+04  0.1018112E-03  0.3486872E-05 -0.3874625E-02 -0.2987936E-02 -0.1907349E-03  0.3755093E-05  0.3083491E+06  0.8179753E+04  0.1264837E-06 -0.2910383E-08
  0.7599999E+00  0.1556150E+06  0.4877167E+04  0.8156427E-05  0.9834766E-06 -0.8118781E-03 -0.3552899E-02  0.3864891E-03 -0.2712011E-05  0.3111412E+06  0.9751457E+04  0.1960679E-07 -0.2240995E-08
  0.7799999E+00  0.1569272E+06  0.5780581E+04  0.1607797E-03 -0.1788139E-06  0.1131205E-01  0.2184778E-02  0.2714304E-03 -0.4291534E-05  0.3137647E+06  0.1155776E+05  0.1719365E-06 -0.1193257E-08
  0.8000000E+00  0.1581621E+06  0.6818388E+04  0.8583069E-04  0.8195639E-05  0.1588941E-01  0.5825937E-02  0.3087521E-03  0.1680851E-04  0.3162344E+06  0.1363275E+05 -0.4307367E-07  0.9895302E-09
  0.8199999E+00  0.1595031E+06  0.8006508E+04 -0.7850369E-04  0.2563000E-05  0.1801689E-01  0.5310237E-02 -0.3605355E-04  0.8761883E-05  0.3189155E+06  0.1600830E+05 -0.2498671E-07  0.1513399E-08
  0.8399999E+00  0.1609706E+06  0.9362937E+04 -0.1884642E-03 -0.5185604E-05 -0.6988901E-01 -0.4122809E-01 -0.2951849E-03 -0.8702278E-05  0.3218483E+06  0.1872033E+05  0.1064369E-06  0.2502929E-08
  0.8599999E+00  0.1625372E+06  0.1090045E+05 -0.7984251E-04  0.1311302E-05 -0.1460946E+00 -0.9122390E-01  0.1896260E-03  0.1716614E-04  0.3249804E+06  0.2179444E+05  0.4981494E-07 -0.7043127E-08
  0.8799999E+00  0.1641310E+06  0.1261280E+05 -0.4985117E-04  0.3457069E-05 -0.6449711E-01 -0.5069017E-01 -0.2709302E-04 -0.4863739E-04  0.3281681E+06  0.2521813E+05  0.1058321E-07 -0.1338776E-08
  0.8999999E+00  0.1657269E+06  0.1452601E+05  0.4503462E-04  0.2831221E-04 -0.3155709E-01 -0.3746122E-01 -0.4333920E-03 -0.5841255E-05  0.3313588E+06  0.2904336E+05 -0.5174015E-08 -0.6635673E-08
  0.9199999E+00  0.1672730E+06  0.1665747E+05  0.1679296E-03  0.2235174E-04 -0.8898197E-02 -0.2078444E-01  0.2114669E-03 -0.2312660E-04  0.3344503E+06  0.3330499E+05 -0.6782459E-07  0.6868504E-08
  0.9399999E+00  0.1687185E+06  0.1902138E+05  0.9029471E-04  0.1800060E-04 -0.1405452E-01 -0.1581347E-01 -0.1927640E-03  0.3361702E-04  0.3373401E+06  0.3803144E+05 -0.7232612E-07  0.5355105E-08
  0.9599999E+00  0.1700077E+06  0.2163221E+05  0.8742015E-04 -0.1430511E-05 -0.1639724E-01 -0.1134717E-01 -0.1966953E-03  0.2884865E-04  0.3399174E+06  0.4325142E+05  0.2328307E-07  0.6635673E-08
  0.9799999E+00  0.1711501E+06  0.2450312E+05 -0.9828685E-04  0.2503395E-05  0.3572484E-01  0.3833759E-01 -0.2374455E-03 -0.2074242E-04  0.3422013E+06  0.4899157E+05  0.2755955E-07  0.2095476E-08
  0.9999999E+00  0.1721014E+06  0.2763689E+05  0.5340577E-04 -0.1037121E-04 -0.5182935E-01 -0.4908288E-01  0.4005432E-04 -0.4434586E-04  0.3441041E+06  0.5525722E+05  0.8381904E-07 -0.6752089E-08
  0.1020000E+01  0.1729540E+06  0.3102740E+05 -0.6357829E-04  0.1788139E-04 -0.4787258E-01 -0.4482973E-01  0.4525278E-03  0.9703636E-04  0.3458082E+06  0.6203612E+05  0.3652245E-08  0.6519258E-08
  0.1040000E+01  0.1737536E+06  0.3468750E+05 -0.1540551E-03  0.6079674E-05 -0.1347982E-01 -0.2050877E-02  0.3062762E-03  0.1597404E-04  0.3474075E+06  0.6935400E+05  0.1871600E-06 -0.3259629E-08
  0.1060000E+01  0.1744564E+06  0.3861845E+05  0.1916346E-03 -0.9608269E-04  0.1340542E-01  0.1932144E-01  0.5074267E-03  0.2002716E-04  0.3488121E+06  0.7721355E+05  0.1818715E-06 -0.7217750E-08
  0.1080000E+01  0.1750165E+06  0.4282349E+05  0.3090611E-04  0.6437302E-05 -0.2403966E-01 -0.4575205E-01  0.9183530E-04 -0.1621246E-04  0.3499312E+06  0.8562112E+05 -0.4742846E-07 -0.2258457E-07
  0.1100000E+01  0.1753875E+06  0.4729677E+05  0.7802790E-05 -0.3981590E-04  0.2340577E-01  0.3527474E-01  0.2965060E-03 -0.6723404E-04  0.3506743E+06  0.9456491E+05  0.1693314E-07  0.1839362E-07
  0.1120000E+01  0.1755431E+06  0.5203218E+05 -0.3746578E-04 -0.7867813E-05  0.1350982E-01 -0.1357079E-02 -0.1720020E-03  0.1811981E-03  0.3509847E+06  0.1040328E+06  0.3741921E-07 -0.3725290E-08
  0.1140000E+01  0.1754591E+06  0.5701871E+05 -0.2668615E-03 -0.7629395E-05  0.1417461E-01  0.2307153E-01 -0.1489070E-03 -0.1482964E-03  0.3508171E+06  0.1140028E+06  0.3349493E-07  0.2328306E-08
  0.1160000E+01  0.1751211E+06  0.6223438E+05  0.1126322E-03 -0.9036064E-04  0.6324670E-02  0.1947403E-02 -0.6149555E-03  0.7438660E-04  0.3501410E+06  0.1244310E+06 -0.1814473E-06 -0.1303852E-07
  0.1180000E+01  0.1745465E+06  0.6765120E+05  0.2093234E-03 -0.3337860E-04  0.2205089E-01  0.3959775E-01 -0.2586236E-03 -0.1230240E-03  0.3489919E+06  0.1352611E+06  0.1207562E-06  0.1210719E-07
  0.1200000E+01  0.1737471E+06  0.7324392E+05  0.1875559E-03  0.4339218E-04  0.1630147E-01  0.2460051E-01  0.3099442E-03  0.9059906E-04  0.3473937E+06  0.1464433E+06 -0.1039977E-06  0.3259629E-07
  0.1220000E+01  0.1726816E+06  0.7898059E+05 -0.1602485E-03  0.2388954E-03  0.4332183E-02  0.2453804E-02  0.3642723E-03 -0.1440048E-03  0.3452625E+06  0.1579128E+06 -0.1374082E-07 -0.4377216E-07
  0.1240000E+01  0.1713766E+06  0.8483765E+05 -0.6152738E-05 -0.2188683E-03  0.1098417E-01  0.8767605E-02  0.6798775E-03  0.6389618E-04  0.3426542E+06  0.1696237E+06 -0.1156643E-06 -0.5215406E-07
  0.1260000E+01  0.1698071E+06  0.9077992E+05  0.1884642E-03 -0.1716614E-04  0.1077198E-01  0.2029705E-01 -0.1180740E-03 -0.1306534E-03  0.3395158E+06  0.1815041E+06 -0.1773948E-07  0.1117587E-07
  0.1280000E+01  0.1679467E+06  0.9677062E+05 -0.2302229E-03 -0.4434586E-04 -0.7367134E-02 -0.1478004E-01  0.4202127E-03 -0.1049042E-04  0.3357963E+06  0.1934821E+06 -0.8731149E-07 -0.6519258E-08
  0.1300000E+01  0.1658473E+06  0.1027720E+06 -0.5355248E-04 -0.3290176E-04 -0.9910877E-02 -0.5900860E-02 -0.3858713E-03  0.3480911E-03  0.3315992E+06  0.2054811E+06  0.2292486E-07 -0.1136213E-06
  0.1320000E+01  0.1635064E+06  0.1087378E+06  0.1856775E-03 -0.4291534E-04 -0.1105395E-02 -0.7094383E-02 -0.9103255E-04 -0.5054474E-04  0.3269181E+06  0.2174088E+06  0.1538093E-06 -0.5401671E-07
  0.1340000E+01  0.1609500E+06  0.1146314E+06  0.1295289E-03  0.9822845E-04 -0.1333649E-01 -0.2998638E-01  0.3558486E-04  0.2651215E-03  0.3218075E+06  0.2291929E+06  0.4587111E-07 -0.3166497E-07
  0.1360000E+01  0.1581937E+06  0.1204167E+06  0.2741814E-03  0.1864433E-03 -0.9080943E-03 -0.1021481E-01 -0.3926894E-03  0.7724762E-04  0.3162962E+06  0.2407594E+06  0.5889246E-07 -0.1210719E-06
  0.1380000E+01  0.1552517E+06  0.1260677E+06  0.5321226E-04  0.9012222E-04 -0.6627346E-03  0.3746033E-02  0.2764273E-05  0.4196167E-04  0.3104150E+06  0.2520579E+06 -0.1282256E-06  0.6984919E-07
  0.1400000E+01  0.1521360E+06  0.1315455E+06 -0.1485007E-03  0.2307892E-03  0.2709798E-02  0.1369381E-01 -0.2833775E-03  0.2479553E-04  0.3041852E+06  0.2630109E+06 -0.8381903E-07  0.1136213E-06
  0.1420000E+01  0.1488756E+06  0.1368239E+06 -0.1087995E-03  0.1106262E-03  0.9697928E-03  0.1906395E-02  0.1584980E-03 -0.6103516E-04  0.2976667E+06  0.2735638E+06  0.5640404E-07 -0.6705523E-07
  0.1440000E+01  0.1454926E+06  0.1418707E+06 -0.9735425E-04  0.1573563E-03 -0.2384848E-02  0.2424240E-01  0.1827876E-03 -0.3566742E-03  0.2909023E+06  0.2836540E+06 -0.5432715E-07 -0.3259629E-07
  0.1460000E+01  0.1420073E+06  0.1466641E+06  0.2220885E-04 -0.3328323E-03 -0.5057740E-02  0.1125240E-01  0.1946541E-03 -0.2250671E-03  0.2839342E+06  0.2932379E+06  0.2423990E-07  0.3259629E-07
  0.1480000E+01  0.1384431E+06  0.1511865E+06  0.1907349E-03 -0.2498627E-03 -0.7922585E-02 -0.9686470E-02  0.1417624E-03  0.1449585E-03  0.2768079E+06  0.3022799E+06 -0.3775632E-08 -0.1201406E-06
  0.1500000E+01  0.1348327E+06  0.1554235E+06  0.1398722E-03 -0.1983643E-03  0.4915873E-02  0.1806164E-01  0.7120768E-04  0.8964539E-04  0.2695900E+06  0.3107510E+06 -0.8816520E-07 -0.1862645E-08
  0.1520000E+01  0.1311845E+06  0.1593677E+06  0.1562269E-03  0.1392365E-03 -0.2917490E-03 -0.7350922E-02 -0.5132274E-03  0.6809235E-03  0.2622953E+06  0.3186372E+06  0.7842716E-07 -0.3352761E-07
  0.1540000E+01  0.1275273E+06  0.1630070E+06  0.4334883E-04  0.1144409E-03 -0.7567468E-02 -0.3071690E-01 -0.2712398E-03 -0.3013611E-03  0.2549827E+06  0.3259140E+06  0.3447103E-07  0.1303852E-06
  0.1560000E+01  0.1238673E+06  0.1663421E+06 -0.8558616E-04  0.9155273E-04 -0.7518744E-02 -0.1646996E-02 -0.4157042E-03 -0.1716614E-04  0.2476659E+06  0.3325814E+06  0.1432804E-07 -0.8381903E-07
  0.1580000E+01  0.1202497E+06  0.1693675E+06  0.1400332E-03  0.3318787E-03 -0.5013430E-02  0.2953529E-02 -0.2233288E-03  0.3032684E-03  0.2404328E+06  0.3386312E+06  0.8605892E-07 -0.1117587E-06
  0.1600000E+01  0.1166642E+06  0.1720910E+06 -0.1734495E-03  0.1583099E-03 -0.6991625E-02  0.1862526E-02 -0.2503395E-03  0.7114410E-03  0.2332640E+06  0.3440762E+06 -0.3492460E-08 -0.1452863E-06
  0.1620000E+01  0.1131367E+06  0.1745075E+06 -0.3473258E-04  0.9059906E-04 -0.3360819E-02 -0.8335114E-02  0.3096498E-03 -0.1888275E-03  0.2262115E+06  0.3489070E+06 -0.6553751E-07  0.1899898E-06
  0.1640000E+01  0.1096737E+06  0.1766368E+06 -0.1029270E-03 -0.1773834E-03 -0.2679011E-02 -0.8831024E-03 -0.5000975E-04  0.5512238E-03  0.2192871E+06  0.3531647E+06 -0.4656613E-07  0.4097819E-07
  0.1660000E+01  0.1062902E+06  0.1784765E+06 -0.4998173E-04 -0.1354218E-03 -0.5342874E-03  0.3497124E-02  0.1574137E-03  0.1907349E-03  0.2125221E+06  0.3568431E+06  0.1009868E-07 -0.2980232E-07
  0.1680000E+01  0.1029942E+06  0.1800445E+06 -0.6925492E-04 -0.3814697E-04 -0.1697313E-02 -0.1113129E-01 -0.2951849E-04 -0.3623962E-04  0.2059324E+06  0.3599778E+06  0.2771793E-08  0.1862645E-08
  0.1700000E+01  0.9977984E+05  0.1813476E+06  0.1750273E-03  0.1583099E-03 -0.1526440E-02 -0.1410198E-01 -0.2098083E-03  0.4997253E-03  0.1995052E+06  0.3625835E+06 -0.1090195E-06  0.1862645E-07
  0.1720000E+01  0.9667195E+05  0.1823958E+06 -0.2495078E-04  0.4482269E-04  0.2700229E-03 -0.2392769E-02  0.5877295E-04  0.3433228E-03  0.1932920E+06  0.3646788E+06 -0.2544893E-07  0.1061708E-06
  0.1740000E+01  0.9367307E+05  0.1832041E+06 -0.1644266E-05  0.5626678E-04 -0.5524734E-03  0.1403713E-01  0.1096177E-04 -0.7686615E-03  0.1872961E+06  0.3662954E+06 -0.3104408E-07  0.1285225E-06
  0.1760000E+01  0.9077626E+05  0.1837876E+06  0.4551627E-04  0.3204346E-03 -0.4953688E-02 -0.1479149E-02 -0.2134930E-03  0.1125336E-03  0.1815046E+06  0.3674626E+06  0.8995729E-08  0.1285225E-06
  0.1780000E+01  0.8799471E+05  0.1841606E+06  0.2973535E-04 -0.2288818E-04 -0.3916226E-02  0.1021385E-02  0.2143088E-04  0.2193451E-03  0.1759429E+06  0.3682081E+06 -0.5493757E-07  0.2421439E-06
  0.1800000E+01  0.8531355E+05  0.1843331E+06  0.2233187E-03  0.2956390E-03 -0.4142920E-02  0.1073933E-01  0.1419915E-03 -0.1850128E-03  0.1705825E+06  0.3685532E+06  0.6208817E-08 -0.9872019E-07
  0.1820000E+01  0.8275316E+05  0.1843145E+06 -0.2357986E-05  0.2956390E-03 -0.4676934E-02  0.5606651E-02 -0.1205193E-04 -0.2365112E-03  0.1654632E+06  0.3685157E+06 -0.1023431E-08  0.1098961E-06
  0.1840000E+01  0.8030191E+05  0.1841213E+06  0.9225762E-04 -0.1382828E-03  0.2918813E-02 -0.1306534E-02  0.1767407E-03 -0.2193451E-03  0.1605621E+06  0.3681302E+06  0.1923384E-07  0.6146729E-07
  0.1860000E+01  0.7796179E+05  0.1837689E+06 -0.1922730E-04 -0.4129410E-03 -0.1250288E-02  0.2419472E-02  0.3178914E-04  0.1058578E-02  0.1558835E+06  0.3674249E+06  0.8512088E-08  0.3185123E-06
  0.1880000E+01  0.7572990E+05  0.1832660E+06  0.4590826E-04  0.1182556E-03 -0.2249758E-02 -0.2498627E-02  0.1674003E-03  0.2098083E-03  0.1514211E+06  0.3664199E+06  0.3467690E-08 -0.7450581E-07
  0.1900000E+01  0.7360480E+05  0.1826197E+06  0.6274173E-04 -0.1621246E-04  0.2816351E-02  0.6288528E-02 -0.1039003E-03  0.1907349E-04  0.1471723E+06  0.3651275E+06  0.7744683E-07  0.8195639E-07
  0.1920000E+01  0.7158788E+05  0.1818451E+06 -0.2781550E-04  0.8583069E-05 -0.2092620E-02  0.1863480E-02  0.9040038E-04 -0.7820129E-04  0.1431399E+06  0.3635789E+06 -0.1212660E-07 -0.1545995E-06
  0.1940000E+01  0.6966579E+05  0.1809547E+06 -0.8258623E-04  0.4062653E-03 -0.4984669E-02  0.3411293E-02  0.1022496E-03  0.4787445E-03  0.1392968E+06  0.3617991E+06  0.2064272E-07 -0.1676381E-07
  0.1960000E+01  0.6783670E+05  0.1799637E+06 -0.6982258E-04 -0.1726151E-03 -0.3935853E-02  0.5907059E-02  0.8271665E-05 -0.2346039E-03  0.1356396E+06  0.3598185E+06  0.2375823E-08 -0.1098961E-06
  0.1980000E+01  0.6610717E+05  0.1788724E+06  0.1565374E-04  0.3013611E-03 -0.2617788E-03  0.3671646E-03  0.1218584E-03  0.7247925E-04  0.1321817E+06  0.3576358E+06  0.2822190E-08 -0.9872019E-07
  0.2000000E+01  0.6446512E+05  0.1776684E+06 -0.2002716E-04  0.1277924E-03 -0.3140450E-02 -0.3587723E-02  0.1249313E-03 -0.2136230E-03  0.1288986E+06  0.3552291E+06 -0.4423782E-08  0.8195639E-07
  0.2020000E+01  0.6292195E+05  0.1763990E+06  0.7789914E-04 -0.8869171E-04  0.3658427E-02 -0.4663467E-03 -0.2974331E-04 -0.1773834E-03  0.1258132E+06  0.3526904E+06 -0.5763135E-08 -0.4097819E-07
  0.2040000E+01  0.6146423E+05  0.1750585E+06  0.9583492E-05  0.7438660E-04  0.1748403E-03  0.2093315E-02 -0.7900537E-04 -0.1258850E-03  0.1228991E+06  0.3500112E+06  0.9587144E-08 -0.2551824E-06
  0.2060000E+01  0.6009132E+05  0.1736572E+06  0.2731397E-04  0.2717972E-03 -0.4177880E-02  0.1045227E-02 -0.1888831E-03  0.2155304E-03  0.1201538E+06  0.3472091E+06 -0.2486541E-08  0.1322478E-06
  0.2080000E+01  0.5879142E+05  0.1721951E+06  0.7450581E-04 -0.4291534E-03 -0.2640715E-02  0.4882812E-03 -0.7473506E-04  0.1907349E-03  0.1175549E+06  0.3442860E+06  0.1589517E-07  0.3725290E-08
  0.2100000E+01  0.5757333E+05  0.1706779E+06  0.2747490E-04 -0.1115799E-03  0.9659359E-03 -0.2713203E-02  0.3133501E-04 -0.7247925E-04  0.1151195E+06  0.3412526E+06 -0.5765330E-08 -0.1043081E-06
  0.2120000E+01  0.5642955E+05  0.1691094E+06  0.3013971E-04 -0.2632141E-03 -0.6770188E-03 -0.2534866E-02  0.1016653E-03  0.2975464E-03  0.1128325E+06  0.3381165E+06 -0.2306341E-07 -0.8568168E-07
  0.2140000E+01  0.5535558E+05  0.1675026E+06  0.1893979E-05 -0.2489090E-03  0.1145746E-02  0.1512527E-02 -0.5392270E-04 -0.5798340E-03  0.1106853E+06  0.3349045E+06  0.1349112E-07  0.1508743E-06
  0.2160000E+01  0.5434834E+05  0.1658540E+06 -0.9558818E-04  0.1754761E-03  0.3227039E-02  0.1529694E-02  0.2207579E-06  0.3280640E-03  0.1086714E+06  0.3316086E+06  0.2608565E-07 -0.9685755E-07
  0.2180000E+01  0.5340612E+05  0.1641674E+06  0.5676112E-04 -0.2002716E-03  0.1846322E-02  0.1937866E-02  0.1511443E-03 -0.6084442E-03  0.1067877E+06  0.3282366E+06  0.1837012E-07  0.2346933E-06
  0.2200000E+01  0.5252479E+05  0.1624577E+06 -0.4291534E-04  0.1077652E-03 -0.5765395E-04 -0.1906395E-02 -0.7954511E-04 -0.1049042E-03  0.1050255E+06  0.3248183E+06  0.3344295E-07  0.9685755E-07
  0.2220000E+01  0.5170921E+05  0.1607257E+06  0.5455704E-04  0.6484985E-04  0.6732640E-03 -0.2342224E-02  0.9064202E-04 -0.3185272E-03  0.1033949E+06  0.3213554E+06  0.1426350E-07  0.8009374E-07
  0.2240000E+01  0.5094188E+05  0.1589731E+06  0.2160668E-04 -0.3080368E-03  0.3282194E-02 -0.3507614E-02 -0.2150025E-04 -0.5207062E-03  0.1018609E+06  0.3178517E+06 -0.3471671E-07  0.2421439E-07
  0.2260000E+01  0.5022129E+05  0.1572169E+06  0.5063757E-05  0.2355576E-03  0.3673334E-02 -0.9412766E-03  0.1040180E-03  0.8773804E-04  0.1004199E+06  0.3143399E+06 -0.3152486E-07 -0.8009374E-07
  0.2280000E+01  0.4955420E+05  0.1554467E+06 -0.3984100E-04 -0.2861023E-03  0.6402794E-02  0.7495880E-03  0.6274173E-04 -0.8010864E-04  0.9908620E+05  0.3108013E+06 -0.1531781E-07  0.6891787E-07
  0.2300000E+01  0.4894253E+05  0.1536615E+06  0.5804974E-04 -0.5741119E-03  0.4856898E-02  0.3910065E-04 -0.7463538E-04 -0.7877350E-03  0.9786313E+05  0.3072328E+06 -0.3644306E-08 -0.7636845E-07
  0.2320000E+01  0.4837851E+05  0.1518578E+06  0.2271143E-04 -0.1420975E-03  0.3772563E-03 -0.2275467E-02 -0.1274306E-04 -0.3242493E-03  0.9673534E+05  0.3036270E+06  0.4144787E-07  0.1583248E-06
  0.2340000E+01  0.4785489E+05  0.1500426E+06 -0.7947287E-05  0.1888275E-03  0.9768030E-03  0.6055832E-03  0.5338946E-04  0.3242493E-04  0.9568849E+05  0.2999970E+06 -0.1562154E-07 -0.1080334E-06
  0.2360000E+01  0.4737450E+05  0.1482263E+06 -0.2222546E-04 -0.1382828E-03  0.1663475E-02  0.9183884E-03 -0.1192093E-04  0.5722046E-04  0.9472805E+05  0.2963650E+06 -0.2101395E-07 -0.9126961E-07
  0.2380000E+01  0.4693183E+05  0.1464297E+06 -0.1332339E-04  0.1296997E-03  0.5789164E-02  0.2737045E-03  0.8815477E-04 -0.5817413E-03  0.9384298E+05  0.2927741E+06  0.1271764E-08  0.1415610E-06
  0.2400000E+01  0.4652310E+05  0.1446307E+06  0.4281600E-04 -0.1745224E-03  0.2226532E-02 -0.2720833E-02  0.1390775E-04  0.6999969E-03  0.9302580E+05  0.2891772E+06  0.2599942E-07 -0.1043081E-06
  0.2420000E+01  0.4615502E+05  0.1428284E+06  0.6137801E-04  0.1726151E-03  0.4102080E-02  0.3686905E-02  0.1970401E-05  0.2193451E-03  0.9228959E+05  0.2855737E+06  0.3126858E-07  0.7450581E-08
  0.2440000E+01  0.4582620E+05  0.1410209E+06  0.6351314E-05  0.2031326E-03  0.2583324E-02 -0.1238823E-02 -0.8598703E-05 -0.2746582E-03  0.9163207E+05  0.2819595E+06 -0.6679567E-09  0.1862645E-08
  0.2460000E+01  0.4552383E+05  0.1392216E+06  0.9158763E-05  0.3156662E-03 -0.5819448E-03 -0.1478195E-02 -0.8809857E-04 -0.3585815E-03  0.9102768E+05  0.2783626E+06  0.1263532E-07  0.3352761E-07
  0.2480000E+01  0.4525557E+05  0.1374194E+06  0.7402512E-05  0.1344681E-03  0.6121974E-03 -0.1205444E-02  0.1089227E-03  0.4768372E-03  0.9049102E+05  0.2747596E+06  0.1013940E-07  0.1173466E-06
  0.2500000E+01  0.4501978E+05  0.1356159E+06  0.8106232E-06  0.1773834E-03 -0.2517700E-03 -0.2960205E-02  0.4673004E-05 -0.6484985E-04  0.9001972E+05  0.2711536E+06  0.7916242E-09  0.6891787E-07
  0.2520000E+01  0.4481416E+05  0.1338003E+06  0.5082952E-04  0.3395081E-03  0.4331910E-02  0.2717972E-02  0.9796922E-04  0.4367828E-03  0.8960870E+05  0.2675242E+06  0.4019101E-08  0.8754432E-07
  0.2540000E+01  0.4463916E+05  0.1320099E+06 -0.1598061E-04 -0.3528595E-04 -0.1143823E-02  0.2555847E-03  0.7199490E-04  0.3795624E-03  0.8925866E+05  0.2639442E+06 -0.9029063E-08  0.2048910E-07
  0.2560000E+01  0.4449831E+05  0.1302235E+06  0.2577435E-04  0.1029968E-03  0.2725748E-03  0.1972198E-02 -0.5965121E-04 -0.4386902E-04  0.8897696E+05  0.2603730E+06  0.2141860E-07  0.2607703E-07
  0.2580000E+01  0.4438548E+05  0.1284327E+06  0.3211258E-04 -0.9727478E-04  0.4520805E-02  0.1774788E-02 -0.1161597E-03 -0.3490448E-03  0.8875139E+05  0.2567925E+06 -0.7783583E-08 -0.2607703E-07
  0.2600000E+01  0.4429703E+05  0.1266617E+06 -0.1233358E-04 -0.1688004E-03  0.3422086E-02  0.9422302E-03 -0.4896751E-04 -0.2441406E-03  0.8857462E+05  0.2532518E+06 -0.1970105E-08 -0.1862645E-08
  0.2620000E+01  0.4424477E+05  0.1249131E+06 -0.1417317E-04  0.2164841E-03 -0.1106258E-02  0.1234055E-02  0.7971553E-04 -0.4844666E-03  0.8846987E+05  0.2497560E+06 -0.3819045E-07  0.1769513E-06
  0.2640000E+01  0.4423745E+05  0.1231365E+06 -0.3010712E-04  0.2288818E-03 -0.2199332E-02  0.3327370E-02 -0.9168730E-04 -0.4634857E-03  0.8845523E+05  0.2462040E+06  0.5953056E-08  0.8568168E-07
  0.2660000E+01  0.4428418E+05  0.1212869E+06 -0.8144101E-04  0.1516342E-03  0.2089759E-02  0.1543045E-02  0.3325312E-04 -0.1640320E-03  0.8854870E+05  0.2425056E+06 -0.3610626E-08 -0.9872019E-07
  0.2680000E+01  0.4440079E+05  0.1193366E+06 -0.1212109E-04 -0.3623962E-04 -0.1401843E-02 -0.1217842E-02 -0.7933200E-04 -0.2365112E-03  0.8878191E+05  0.2386065E+06  0.5972801E-08 -0.5587935E-08
  0.2700000E+01  0.4463006E+05  0.1172515E+06 -0.1938255E-04  0.1649857E-03 -0.4123979E-02  0.6013870E-02 -0.2249523E-04 -0.5073547E-03  0.8924004E+05  0.2344378E+06 -0.1711736E-07  0.4656613E-07
  0.2720000E+01  0.4507621E+05  0.1147885E+06 -0.1847306E-04 -0.4386902E-04 -0.2521474E-02 -0.6047249E-02 -0.9624397E-04  0.7438660E-04  0.9013208E+05  0.2295134E+06  0.1904589E-08  0.1005828E-06
  0.2740000E+01  0.4607307E+05  0.1113812E+06  0.2445096E-04 -0.3595352E-03  0.6686162E-02 -0.2125740E-02  0.8788422E-05 -0.1163483E-03  0.9212517E+05  0.2227004E+06 -0.6967924E-08  0.3725290E-07
  0.2760000E+01  0.4959257E+05  0.1022843E+06  0.7558560E-04  0.1659393E-03 -0.2591498E-01 -0.3831863E-02 -0.2401463E-04 -0.3623962E-04  0.9916156E+05  0.2045115E+06 -0.8942046E-08 -0.4470348E-07
  0.2780000E+01  0.2382123E+05  0.1139682E+06  0.4802676E-05 -0.2045631E-03  0.1276809E-01 -0.3327799E-01  0.9776877E-04 -0.6837845E-03  0.4763467E+05  0.2278787E+06 -0.3350081E-09 -0.1490116E-07
  0.2799999E+01  0.3895832E+05  0.1154840E+06 -0.2818449E-04 -0.5531311E-04  0.1082438E-01  0.1381874E-02  0.6914141E-04  0.1888275E-03  0.7789989E+05  0.2309060E+06  0.4323999E-08  0.6519258E-07
  0.2819999E+01  0.4089016E+05  0.1124755E+06  0.2333459E-04  0.3147125E-04 -0.5239927E-02 -0.5580902E-02  0.6645286E-04  0.1850128E-03  0.8176237E+05  0.2248907E+06 -0.9907691E-08 -0.1676381E-07
  0.2840000E+01  0.4164263E+05  0.1102025E+06 -0.2669617E-04  0.2193451E-04  0.1441933E-01  0.5160332E-02 -0.1424635E-03 -0.3051758E-04  0.8326670E+05  0.2203461E+06  0.7624384E-08 -0.5029142E-07
  0.2860000E+01  0.4207498E+05  0.1082983E+06  0.4459928E-04  0.3938675E-03  0.7229377E-02  0.1777649E-02  0.1088723E-03 -0.2651215E-03  0.8413121E+05  0.2165388E+06 -0.4314694E-08  0.6146729E-07
  0.2880000E+01  0.4237082E+05  0.1065531E+06  0.5364418E-04  0.3433228E-03  0.6926391E-02 -0.2510071E-02  0.8361207E-05  0.6866455E-04  0.8472256E+05  0.2130498E+06  0.9216213E-08 -0.6146729E-07
  0.2900000E+01  0.4259840E+05  0.1049220E+06  0.6338645E-04 -0.4577637E-04 -0.5773429E-03 -0.4391670E-02  0.7259435E-04 -0.9536743E-04  0.8517764E+05  0.2097884E+06  0.2248020E-08  0.1154840E-06
  0.2920000E+01  0.4279278E+05  0.1033377E+06  0.5474646E-04 -0.1907349E-05  0.6728017E-02  0.6923676E-03 -0.1090847E-03  0.3166199E-03  0.8556609E+05  0.2066208E+06 -0.1267811E-07 -0.9126961E-07
  0.2940000E+01  0.4296027E+05  0.1017680E+06  0.5778001E-04 -0.8583069E-05  0.2606223E-02 -0.9107590E-03  0.8839328E-04 -0.4291534E-03  0.8590102E+05  0.2034822E+06  0.2431259E-07  0.1862645E-07
  0.2960000E+01  0.4312350E+05  0.1002735E+06 -0.2154627E-04  0.3108978E-03  0.3686628E-03 -0.5105019E-02 -0.3946794E-04  0.4596710E-03  0.8622722E+05  0.2004948E+06 -0.6214061E-08 -0.1303852E-07
  0.2980000E+01  0.4327882E+05  0.9878897E+05 -0.3940307E-04  0.3023148E-03  0.1693692E-02 -0.7801056E-03  0.6160480E-04  0.4444122E-03  0.8653765E+05  0.1975266E+06 -0.1726697E-07  0.3539026E-07
  0.3000000E+01  0.4342028E+05  0.9727963E+05  0.5340576E-04  0.1287460E-03  0.9879669E-03 -0.1842499E-02 -0.1319249E-04  0.1678467E-03  0.8682062E+05  0.1945086E+06 -0.5122274E-08  0.8754432E-07
  0.3020000E+01  0.4356188E+05  0.9578948E+05  0.3509174E-04 -0.3919601E-03 -0.9078854E-06 -0.1427650E-02  0.2360502E-04  0.4253387E-03  0.8710373E+05  0.1915296E+06  0.1063928E-07 -0.4470348E-07