VARIABLES="X" "Y" "Z" "NX" "NY" "NZ" "A"
 ZONE N=        6048 , E=        2952  , F=FEPOINT,ET=QUADRILATERAL
   0.9961947E+01   0.8715574E+00  -0.2000000E+01   0.0000000E+00   0.0000000E+00   0.0000000E+00   0.0000000E+00
   0.9961947E+01   0.8715574E+00  -0.1500000E+01   0.0000000E+00   0.0000000E+00   0.0000000E+00   0.0000000E+00
   0.9961947E+01   0.8715574E+00  -0.1000000E+01   0.0000000E+00   0.0000000E+00   0.0000000E+00   0.0000000E+00
   0.9961947E+01   0.8715574E+00  -0.5000000E+00   0.0000000E+00   0.0000000E+00   0.0000000E+00   0.0000000E+00
   0.9961947E+01   0.8715574E+00   0.0000000E+00   0.0000000E+00   0.0000000E+00   0.0000000E+00   0.0000000E+00
   0.9980974E+01   0.4357787E+00  -0.2000000E+01   0.0000000E+00   0.0000000E+00   0.0000000E+00   0.0000000E+00
   0.9980974E+01   0.4357787E+00  -0.1500000E+01   0.0000000E+00   0.0000000E+00   0.0000000E+00   0.0000000E+00
   0.9980974E+01   0.4357787E+00  -0.1000000E+01   0.0000000E+00   0.0000000E+00   0.0000000E+00   0.0000000E+00
   0.9980974E+01   0.4357787E+00  -0.5000000E+00   0.0000000E+00   0.0000000E+00   0.0000000E+00   0.0000000E+00
   0.9980974E+01   0.4357787E+00   0.0000000E+00   0.0000000E+00   0.0000000E+00   0.0000000E+00   0.0000000E+00
   0.1000000E+02   0.0000000E+00  -0.2000000E+01   0.0000000E+00   0.0000000E+00   0.0000000E+00   0.0000000E+00
   0.1000000E+02   0.0000000E+00  -0.1500000E+01   0.0000000E+00   0.0000000E+00   0.0000000E+00   0.0000000E+00
   0.1000000E+02   0.0000000E+00  -0.1000000E+01   0.0000000E+00   0.0000000E+00   0.0000000E+00   0.0000000E+00
   0.1000000E+02   0.0000000E+00  -0.5000000E+00   0.0000000E+00   0.0000000E+00   0.0000000E+00   0.0000000E+00
   0.1000000E+02   0.0000000E+00   0.0000000E+00   0.0000000E+00   0.0000000E+00   0.0000000E+00   0.0000000E+00
   0.9848078E+01   0.1736482E+01  -0.2000000E+01   0.0000000E+00   0.0000000E+00   0.0000000E+00   0.0000000E+00
   0.9848078E+01   0.1736482E+01  -0.1500000E+01   0.0000000E+00   0.0000000E+00   0.0000000E+00   0.0000000E+00
   0.9848078E+01   0.1736482E+01  -0.1000000E+01   0.0000000E+00   0.0000000E+00   0.0000000E+00   0.0000000E+00
   0.9848078E+01   0.1736482E+01  -0.5000000E+00   0.0000000E+00   0.0000000E+00   0.0000000E+00   0.0000000E+00
   0.9848078E+01   0.1736482E+01   0.0000000E+00   0.0000000E+00   0.0000000E+00   0.0000000E+00   0.0000000E+00
   0.9905012E+01   0.1304020E+01  -0.2000000E+01   0.0000000E+00   0.0000000E+00   0.0000000E+00   0.0000000E+00
   0.9905012E+01   0.1304020E+01  -0.1500000E+01   0.0000000E+00   0.0000000E+00   0.0000000E+00   0.0000000E+00
   0.9905012E+01   0.1304020E+01  -0.1000000E+01   0.0000000E+00   0.0000000E+00   0.0000000E+00   0.0000000E+00
   0.9905012E+01   0.1304020E+01  -0.5000000E+00   0.0000000E+00   0.0000000E+00   0.0000000E+00   0.0000000E+00
   0.9905012E+01   0.1304020E+01   0.0000000E+00   0.0000000E+00   0.0000000E+00   0.0000000E+00   0.0000000E+00
   0.9961947E+01   0.8715574E+00  -0.2000000E+01   0.0000000E+00   0.0000000E+00   0.0000000E+00   0.0000000E+00
   0.9961947E+01   0.8715574E+00  -0.1500000E+01   0.0000000E+00   0.0000000E+00   0.0000000E+00   0.0000000E+00
   0.9961947E+01   0.8715574E+00  -0.1000000E+01   0.0000000E+00   0.0000000E+00   0.0000000E+00   0.0000000E+00
   0.9961947E+01   0.8715574E+00  -0.5000000E+00   0.0000000E+00   0.0000000E+00   0.0000000E+00   0.0000000E+00
   0.9961947E+01   0.8715574E+00   0.0000000E+00   0.0000000E+00   0.0000000E+00   0.0000000E+00   0.0000000E+00
   0.9659258E+01   0.2588190E+01  -0.2000000E+01   0.0000000E+00   0.0000000E+00   0.0000000E+00   0.0000000E+00
   0.9659258E+01   0.2588190E+01  -0.1500000E+01   0.0000000E+00   0.0000000E+00   0.0000000E+00   0.0000000E+00
   0.9659258E+01   0.2588190E+01  -0.1000000E+01   0.0000000E+00   0.0000000E+00   0.0000000E+00   0.0000000E+00
   0.9659258E+01   0.2588190E+01  -0.5000000E+00   0.0000000E+00   0.0000000E+00   0.0000000E+00   0.0000000E+00
   0.9659258E+01   0.2588190E+01   0.0000000E+00   0.0000000E+00   0.0000000E+00   0.0000000E+00   0.0000000E+00
   0.9753668E+01   0.2162336E+01  -0.2000000E+01   0.0000000E+00   0.0000000E+00   0.0000000E+00   0.0000000E+00
   0.9753668E+01   0.2162336E+01  -0.1500000E+01   0.0000000E+00   0.0000000E+00   0.0000000E+00   0.0000000E+00
   0.9753668E+01   0.2162336E+01  -0.1000000E+01   0.0000000E+00   0.0000000E+00   0.0000000E+00   0.0000000E+00
   0.9753668E+01   0.2162336E+01  -0.5000000E+00   0.0000000E+00   0.0000000E+00   0.0000000E+00   0.0000000E+00
   0.9753668E+01   0.2162336E+01   0.0000000E+00   0.0000000E+00   0.0000000E+00   0.0000000E+00   0.0000000E+00
   0.9848078E+01   0.1736482E+01  -0.2000000E+01   0.0000000E+00   0.0000000E+00   0.0000000E+00   0.0000000E+00
   0.9848078E+01   0.1736482E+01  -0.1500000E+01   0.0000000E+00   0.0000000E+00   0.0000000E+00   0.0000000E+00
   0.9848078E+01   0.1736482E+01  -0.1000000E+01   0.0000000E+00   0.0000000E+00   0.0000000E+00   0.0000000E+00
   0.9848078E+01   0.1736482E+01  -0.5000000E+00   0.0000000E+00   0.0000000E+00   0.0000000E+00   0.0000000E+00
   0.9848078E+01   0.1736482E+01   0.0000000E+00   0.0000000E+00   0.0000000E+00   0.0000000E+00   0.0000000E+00
   0.9396926E+01   0.3420201E+01  -0.2000000E+01   0.0000000E+00   0.0000000E+00   0.0000000E+00   0.0000000E+00
   0.9396926E+01   0.3420201E+01  -0.1500000E+01   0.0000000E+00   0.0000000E+00   0.0000000E+00   0.0000000E+00
   0.9396926E+01   0.3420201E+01  -0.1000000E+01   0.0000000E+00   0.0000000E+00   0.0000000E+00   0.0000000E+00
   0.9396926E+01   0.3420201E+01  -0.5000000E+00   0.0000000E+00   0.0000000E+00   0.0000000E+00   0.0000000E+00
   0.9396926E+01   0.3420201E+01   0.0000000E+00   0.0000000E+00   0.0000000E+00   0.0000000E+00   0.0000000E+00
   0.9528091E+01   0.3004196E+01  -0.2000000E+01   0.0000000E+00   0.0000000E+00   0.0000000E+00   0.0000000E+00
   0.9528091E+01   0.3004196E+01  -0.1500000E+01   0.0000000E+00   0.0000000E+00   0.0000000E+00   0.0000000E+00
   0.9528091E+01   0.3004196E+01  -0.1000000E+01   0.0000000E+00   0.0000000E+00   0.0000000E+00   0.0000000E+00
   0.9528091E+01   0.3004196E+01  -0.5000000E+00   0.0000000E+00   0.0000000E+00   0.0000000E+00   0.0000000E+00
   0.9528091E+01   0.3004196E+01   0.0000000E+00   0.0000000E+00   0.0000000E+00   0.0000000E+00   0.0000000E+00
   0.9659258E+01   0.2588190E+01  -0.2000000E+01   0.0000000E+00   0.0000000E+00   0.0000000E+00   0.0000000E+00
   0.9659258E+01   0.2588190E+01  -0.1500000E+01   0.0000000E+00   0.0000000E+00   0.0000000E+00   0.0000000E+00
   0.9659258E+01   0.2588190E+01  -0.1000000E+01   0.0000000E+00   0.0000000E+00   0.0000000E+00   0.0000000E+00
   0.9659258E+01   0.2588190E+01  -0.5000000E+00   0.0000000E+00   0.0000000E+00   0.0000000E+00   0.0000000E+00
   0.9659258E+01   0.2588190E+01   0.0000000E+00   0.0000000E+00   0.0000000E+00   0.0000000E+00   0.0000000E+00
   0.9063078E+01   0.4226183E+01  -0.2000000E+01   0.0000000E+00   0.0000000E+00   0.0000000E+00   0.0000000E+00
   0.9063078E+01   0.4226183E+01  -0.1500000E+01   0.0000000E+00   0.0000000E+00   0.0000000E+00   0.0000000E+00
   0.9063078E+01   0.4226183E+01  -0.1000000E+01   0.0000000E+00   0.0000000E+00   0.0000000E+00   0.0000000E+00
   0.9063078E+01   0.4226183E+01  -0.5000000E+00   0.0000000E+00   0.0000000E+00   0.0000000E+00   0.0000000E+00
   0.9063078E+01   0.4226183E+01   0.0000000E+00   0.0000000E+00   0.0000000E+00   0.0000000E+00   0.0000000E+00
   0.9230001E+01   0.3823192E+01  -0.2000000E+01   0.0000000E+00   0.0000000E+00   0.0000000E+00   0.0000000E+00
   0.9230001E+01   0.3823192E+01  -0.1500000E+01   0.0000000E+00   0.0000000E+00   0.0000000E+00   0.0000000E+00
   0.9230001E+01   0.3823192E+01  -0.1000000E+01   0.0000000E+00   0.0000000E+00   0.0000000E+00   0.0000000E+00
   0.9230001E+01   0.3823192E+01  -0.5000000E+00   0.0000000E+00   0.0000000E+00   0.0000000E+00   0.0000000E+00
   0.9230001E+01   0.3823192E+01   0.0000000E+00   0.0000000E+00   0.0000000E+00   0.0000000E+00   0.0000000E+00
   0.9396926E+01   0.3420201E+01  -0.2000000E+01   0.0000000E+00   0.0000000E+00   0.0000000E+00   0.0000000E+00
   0.9396926E+01   0.3420201E+01  -0.1500000E+01   0.0000000E+00   0.0000000E+00   0.0000000E+00   0.0000000E+00
   0.9396926E+01   0.3420201E+01  -0.1000000E+01   0.0000000E+00   0.0000000E+00   0.0000000E+00   0.0000000E+00
   0.9396926E+01   0.3420201E+01  -0.5000000E+00   0.0000000E+00   0.0000000E+00   0.0000000E+00   0.0000000E+00
   0.9396926E+01   0.3420201E+01   0.0000000E+00   0.0000000E+00   0.0000000E+00   0.0000000E+00   0.0000000E+00
   0.8660254E+01   0.5000000E+01  -0.2000000E+01   0.0000000E+00   0.0000000E+00   0.0000000E+00   0.0000000E+00
   0.8660254E+01   0.5000000E+01  -0.1500000E+01   0.0000000E+00   0.0000000E+00   0.0000000E+00   0.0000000E+00
   0.8660254E+01   0.5000000E+01  -0.1000000E+01   0.0000000E+00   0.0000000E+00   0.0000000E+00   0.0000000E+00
   0.8660254E+01   0.5000000E+01  -0.5000000E+00   0.0000000E+00   0.0000000E+00   0.0000000E+00   0.0000000E+00
   0.8660254E+01   0.5000000E+01   0.0000000E+00   0.0000000E+00   0.0000000E+00   0.0000000E+00   0.0000000E+00
   0.8861666E+01   0.4613091E+01  -0.2000000E+01   0.0000000E+00   0.0000000E+00   0.0000000E+00   0.0000000E+00
   0.8861666E+01   0.4613091E+01  -0.1500000E+01   0.0000000E+00   0.0000000E+00   0.0000000E+00   0.0000000E+00
   0.8861666E+01   0.4613091E+01  -0.1000000E+01   0.0000000E+00   0.0000000E+00   0.0000000E+00   0.0000000E+00
   0.8861666E+01   0.4613091E+01  -0.5000000E+00   0.0000000E+00   0.0000000E+00   0.0000000E+00   0.0000000E+00
   0.8861666E+01   0.4613091E+01   0.0000000E+00   0.0000000E+00   0.0000000E+00   0.0000000E+00   0.0000000E+00
   0.9063078E+01   0.4226183E+01  -0.2000000E+01   0.0000000E+00   0.0000000E+00   0.0000000E+00   0.0000000E+00
   0.9063078E+01   0.4226183E+01  -0.1500000E+01   0.0000000E+00   0.0000000E+00   0.0000000E+00   0.0000000E+00
   0.9063078E+01   0.4226183E+01  -0.1000000E+01   0.0000000E+00   0.0000000E+00   0.0000000E+00   0.0000000E+00
   0.9063078E+01   0.4226183E+01  -0.5000000E+00   0.0000000E+00   0.0000000E+00   0.0000000E+00   0.0000000E+00
   0.9063078E+01   0.4226183E+01   0.0000000E+00   0.0000000E+00   0.0000000E+00   0.0000000E+00   0.0000000E+00
   0.8191520E+01   0.5735764E+01  -0.2000000E+01   0.0000000E+00   0.0000000E+00   0.0000000E+00   0.0000000E+00
   0.8191520E+01   0.5735764E+01  -0.1500000E+01   0.0000000E+00   0.0000000E+00   0.0000000E+00   0.0000000E+00
   0.8191520E+01   0.5735764E+01  -0.1000000E+01   0.0000000E+00   0.0000000E+00   0.0000000E+00   0.0000000E+00
   0.8191520E+01   0.5735764E+01  -0.5000000E+00   0.0000000E+00   0.0000000E+00   0.0000000E+00   0.0000000E+00
   0.8191520E+01   0.5735764E+01   0.0000000E+00   0.0000000E+00   0.0000000E+00   0.0000000E+00   0.0000000E+00
   0.8425886E+01   0.5367882E+01  -0.2000000E+01   0.0000000E+00   0.0000000E+00   0.0000000E+00   0.0000000E+00
   0.8425886E+01   0.5367882E+01  -0.1500000E+01   0.0000000E+00   0.0000000E+00   0.0000000E+00   0.0000000E+00
   0.8425886E+01   0.5367882E+01  -0.1000000E+01   0.0000000E+00   0.0000000E+00   0.0000000E+00   0.0000000E+00
   0.8425886E+01   0.5367882E+01  -0.5000000E+00   0.0000000E+00   0.0000000E+00   0.0000000E+00   0.0000000E+00
   0.8425886E+01   0.5367882E+01   0.0000000E+00   0.0000000E+00   0.0000000E+00   0.0000000E+00   0.0000000E+00
   0.8660254E+01   0.5000000E+01  -0.2000000E+01   0.0000000E+00   0.0000000E+00   0.0000000E+00   0.0000000E+00
   0.8660254E+01   0.5000000E+01  -0.1500000E+01   0.0000000E+00   0.0000000E+00   0.0000000E+00   0.0000000E+00
   0.8660254E+01   0.5000000E+01  -0.1000000E+01   0.0000000E+00   0.0000000E+00   0.0000000E+00   0.0000000E+00
   0.8660254E+01   0.5000000E+01  -0.5000000E+00   0.0000000E+00   0.0000000E+00   0.0000000E+00   0.0000000E+00
   0.8660254E+01   0.5000000E+01   0.0000000E+00   0.0000000E+00   0.0000000E+00   0.0000000E+00   0.0000000E+00
   0.7660444E+01   0.6427876E+01  -0.2000000E+01   0.0000000E+00   0.0000000E+00   0.0000000E+00   0.0000000E+00
   0.7660444E+01   0.6427876E+01  -0.1500000E+01   0.0000000E+00   0.0000000E+00   0.0000000E+00   0.0000000E+00
   0.7660444E+01   0.6427876E+01  -0.1000000E+01   0.0000000E+00   0.0000000E+00   0.0000000E+00   0.0000000E+00
   0.7660444E+01   0.6427876E+01  -0.5000000E+00   0.0000000E+00   0.0000000E+00   0.0000000E+00   0.0000000E+00
   0.7660444E+01   0.6427876E+01   0.0000000E+00   0.0000000E+00   0.0000000E+00   0.0000000E+00   0.0000000E+00
   0.7925982E+01   0.6081820E+01  -0.2000000E+01   0.0000000E+00   0.0000000E+00   0.0000000E+00   0.0000000E+00
   0.7925982E+01   0.6081820E+01  -0.1500000E+01   0.0000000E+00   0.0000000E+00   0.0000000E+00   0.0000000E+00
   0.7925982E+01   0.6081820E+01  -0.1000000E+01   0.0000000E+00   0.0000000E+00   0.0000000E+00   0.0000000E+00
   0.7925982E+01   0.6081820E+01  -0.5000000E+00   0.0000000E+00   0.0000000E+00   0.0000000E+00   0.0000000E+00
   0.7925982E+01   0.6081820E+01   0.0000000E+00   0.0000000E+00   0.0000000E+00   0.0000000E+00   0.0000000E+00
   0.8191520E+01   0.5735764E+01  -0.2000000E+01   0.0000000E+00   0.0000000E+00   0.0000000E+00   0.0000000E+00
   0.8191520E+01   0.5735764E+01  -0.1500000E+01   0.0000000E+00   0.0000000E+00   0.0000000E+00   0.0000000E+00
   0.8191520E+01   0.5735764E+01  -0.1000000E+01   0.0000000E+00   0.0000000E+00   0.0000000E+00   0.0000000E+00
   0.8191520E+01   0.5735764E+01  -0.5000000E+00   0.0000000E+00   0.0000000E+00   0.0000000E+00   0.0000000E+00
   0.8191520E+01   0.5735764E+01   0.0000000E+00   0.0000000E+00   0.0000000E+00   0.0000000E+00   0.0000000E+00
   0.7071068E+01   0.7071068E+01  -0.2000000E+01   0.0000000E+00   0.0000000E+00   0.0000000E+00   0.0000000E+00
   0.7071068E+01   0.7071068E+01  -0.1500000E+01   0.0000000E+00   0.0000000E+00   0.0000000E+00   0.0000000E+00
   0.7071068E+01   0.7071068E+01  -0.1000000E+01   0.0000000E+00   0.0000000E+00   0.0000000E+00   0.0000000E+00
   0.7071068E+01   0.7071068E+01  -0.5000000E+00   0.0000000E+00   0.0000000E+00   0.0000000E+00   0.0000000E+00
   0.7071068E+01   0.7071068E+01   0.0000000E+00   0.0000000E+00   0.0000000E+00   0.0000000E+00   0.0000000E+00
   0.7365756E+01   0.6749472E+01  -0.2000000E+01   0.0000000E+00   0.0000000E+00   0.0000000E+00   0.0000000E+00
   0.7365756E+01   0.6749472E+01  -0.1500000E+01   0.0000000E+00   0.0000000E+00   0.0000000E+00   0.0000000E+00
   0.7365756E+01   0.6749472E+01  -0.1000000E+01   0.0000000E+00   0.0000000E+00   0.0000000E+00   0.0000000E+00
   0.7365756E+01   0.6749472E+01  -0.5000000E+00   0.0000000E+00   0.0000000E+00   0.0000000E+00   0.0000000E+00
   0.7365756E+01   0.6749472E+01   0.0000000E+00   0.0000000E+00   0.0000000E+00   0.0000000E+00   0.0000000E+00
   0.7660444E+01   0.6427876E+01  -0.2000000E+01   0.0000000E+00   0.0000000E+00   0.0000000E+00   0.0000000E+00
   0.7660444E+01   0.6427876E+01  -0.1500000E+01   0.0000000E+00   0.0000000E+00   0.0000000E+00   0.0000000E+00
   0.7660444E+01   0.6427876E+01  -0.1000000E+01   0.0000000E+00   0.0000000E+00   0.0000000E+00   0.0000000E+00
   0.7660444E+01   0.6427876E+01  -0.5000000E+00   0.0000000E+00   0.0000000E+00   0.0000000E+00   0.0000000E+00
   0.7660444E+01   0.6427876E+01   0.0000000E+00   0.0000000E+00   0.0000000E+00   0.0000000E+00   0.0000000E+00
   0.6427876E+01   0.7660444E+01  -0.2000000E+01   0.0000000E+00   0.0000000E+00   0.0000000E+00   0.0000000E+00
   0.6427876E+01   0.7660444E+01  -0.1500000E+01   0.0000000E+00   0.0000000E+00   0.0000000E+00   0.0000000E+00
   0.6427876E+01   0.7660444E+01  -0.1000000E+01   0.0000000E+00   0.0000000E+00   0.0000000E+00   0.0000000E+00
   0.6427876E+01   0.7660444E+01  -0.5000000E+00   0.0000000E+00   0.0000000E+00   0.0000000E+00   0.0000000E+00
   0.6427876E+01   0.7660444E+01   0.0000000E+00   0.0000000E+00   0.0000000E+00   0.0000000E+00   0.0000000E+00
   0.6749472E+01   0.7365756E+01  -0.2000000E+01   0.0000000E+00   0.0000000E+00   0.0000000E+00   0.0000000E+00
   0.6749472E+01   0.7365756E+01  -0.1500000E+01   0.0000000E+00   0.0000000E+00   0.0000000E+00   0.0000000E+00
   0.6749472E+01   0.7365756E+01  -0.1000000E+01   0.0000000E+00   0.0000000E+00   0.0000000E+00   0.0000000E+00
   0.6749472E+01   0.7365756E+01  -0.5000000E+00   0.0000000E+00   0.0000000E+00   0.0000000E+00   0.0000000E+00
   0.6749472E+01   0.7365756E+01   0.0000000E+00   0.0000000E+00   0.0000000E+00   0.0000000E+00   0.0000000E+00
   0.7071068E+01   0.7071068E+01  -0.2000000E+01   0.0000000E+00   0.0000000E+00   0.0000000E+00   0.0000000E+00
   0.7071068E+01   0.7071068E+01  -0.1500000E+01   0.0000000E+00   0.0000000E+00   0.0000000E+00   0.0000000E+00
   0.7071068E+01   0.7071068E+01  -0.1000000E+01   0.0000000E+00   0.0000000E+00   0.0000000E+00   0.0000000E+00
   0.7071068E+01   0.7071068E+01  -0.5000000E+00   0.0000000E+00   0.0000000E+00   0.0000000E+00   0.0000000E+00
   0.7071068E+01   0.7071068E+01   0.0000000E+00   0.0000000E+00   0.0000000E+00   0.0000000E+00   0.0000000E+00
   0.5735764E+01   0.8191520E+01  -0.2000000E+01   0.0000000E+00   0.0000000E+00   0.0000000E+00   0.0000000E+00
   0.5735764E+01   0.8191520E+01  -0.1500000E+01   0.0000000E+00   0.0000000E+00   0.0000000E+00   0.0000000E+00
   0.5735764E+01   0.8191520E+01  -0.1000000E+01   0.0000000E+00   0.0000000E+00   0.0000000E+00   0.0000000E+00
   0.5735764E+01   0.8191520E+01  -0.5000000E+00   0.0000000E+00   0.0000000E+00   0.0000000E+00   0.0000000E+00
   0.5735764E+01   0.8191520E+01   0.0000000E+00   0.0000000E+00   0.0000000E+00   0.0000000E+00   0.0000000E+00
   0.6081820E+01   0.7925982E+01  -0.2000000E+01   0.0000000E+00   0.0000000E+00   0.0000000E+00   0.0000000E+00
   0.6081820E+01   0.7925982E+01  -0.1500000E+01   0.0000000E+00   0.0000000E+00   0.0000000E+00   0.0000000E+00
   0.6081820E+01   0.7925982E+01  -0.1000000E+01   0.0000000E+00   0.0000000E+00   0.0000000E+00   0.0000000E+00
   0.6081820E+01   0.7925982E+01  -0.5000000E+00   0.0000000E+00   0.0000000E+00   0.0000000E+00   0.0000000E+00
   0.6081820E+01   0.7925982E+01   0.0000000E+00   0.0000000E+00   0.0000000E+00   0.0000000E+00   0.0000000E+00
   0.6427876E+01   0.7660444E+01  -0.2000000E+01   0.0000000E+00   0.0000000E+00   0.0000000E+00   0.0000000E+00
   0.6427876E+01   0.7660444E+01  -0.1500000E+01   0.0000000E+00   0.0000000E+00   0.0000000E+00   0.0000000E+00
   0.6427876E+01   0.7660444E+01  -0.1000000E+01   0.0000000E+00   0.0000000E+00   0.0000000E+00   0.0000000E+00
   0.6427876E+01   0.7660444E+01  -0.5000000E+00   0.0000000E+00   0.0000000E+00   0.0000000E+00   0.0000000E+00
   0.6427876E+01   0.7660444E+01   0.0000000E+00   0.0000000E+00   0.0000000E+00   0.0000000E+00   0.0000000E+00
   0.5000000E+01   0.8660254E+01  -0.2000000E+01   0.0000000E+00   0.0000000E+00   0.0000000E+00   0.0000000E+00
   0.5000000E+01   0.8660254E+01  -0.1500000E+01   0.0000000E+00   0.0000000E+00   0.0000000E+00   0.0000000E+00
   0.5000000E+01   0.8660254E+01  -0.1000000E+01   0.0000000E+00   0.0000000E+00   0.0000000E+00   0.0000000E+00
   0.5000000E+01   0.8660254E+01  -0.5000000E+00   0.0000000E+00   0.0000000E+00   0.0000000E+00   0.0000000E+00
   0.5000000E+01   0.8660254E+01   0.0000000E+00   0.0000000E+00   0.0000000E+00   0.0000000E+00   0.0000000E+00
   0.5367882E+01   0.8425886E+01  -0.2000000E+01   0.0000000E+00   0.0000000E+00   0.0000000E+00   0.0000000E+00
   0.5367882E+01   0.8425886E+01  -0.1500000E+01   0.0000000E+00   0.0000000E+00   0.0000000E+00   0.0000000E+00
   0.5367882E+01   0.8425886E+01  -0.1000000E+01   0.0000000E+00   0.0000000E+00   0.0000000E+00   0.0000000E+00
   0.5367882E+01   0.8425886E+01  -0.5000000E+00   0.0000000E+00   0.0000000E+00   0.0000000E+00   0.0000000E+00
   0.5367882E+01   0.8425886E+01   0.0000000E+00   0.0000000E+00   0.0000000E+00   0.0000000E+00   0.0000000E+00
   0.5735764E+01   0.8191520E+01  -0.2000000E+01   0.0000000E+00   0.0000000E+00   0.0000000E+00   0.0000000E+00
   0.5735764E+01   0.8191520E+01  -0.1500000E+01   0.0000000E+00   0.0000000E+00   0.0000000E+00   0.0000000E+00
   0.5735764E+01   0.8191520E+01  -0.1000000E+01   0.0000000E+00   0.0000000E+00   0.0000000E+00   0.0000000E+00
   0.5735764E+01   0.8191520E+01  -0.5000000E+00   0.0000000E+00   0.0000000E+00   0.0000000E+00   0.0000000E+00
   0.5735764E+01   0.8191520E+01   0.0000000E+00   0.0000000E+00   0.0000000E+00   0.0000000E+00   0.0000000E+00
   0.4226183E+01   0.9063078E+01  -0.2000000E+01   0.0000000E+00   0.0000000E+00   0.0000000E+00   0.0000000E+00
   0.4226183E+01   0.9063078E+01  -0.1500000E+01   0.0000000E+00   0.0000000E+00   0.0000000E+00   0.0000000E+00
   0.4226183E+01   0.9063078E+01  -0.1000000E+01   0.0000000E+00   0.0000000E+00   0.0000000E+00   0.0000000E+00
   0.4226183E+01   0.9063078E+01  -0.5000000E+00   0.0000000E+00   0.0000000E+00   0.0000000E+00   0.0000000E+00
   0.4226183E+01   0.9063078E+01   0.0000000E+00   0.0000000E+00   0.0000000E+00   0.0000000E+00   0.0000000E+00
   0.4613091E+01   0.8861666E+01  -0.2000000E+01   0.0000000E+00   0.0000000E+00   0.0000000E+00   0.0000000E+00
   0.4613091E+01   0.8861666E+01  -0.1500000E+01   0.0000000E+00   0.0000000E+00   0.0000000E+00   0.0000000E+00
   0.4613091E+01   0.8861666E+01  -0.1000000E+01   0.0000000E+00   0.0000000E+00   0.0000000E+00   0.0000000E+00
   0.4613091E+01   0.8861666E+01  -0.5000000E+00   0.0000000E+00   0.0000000E+00   0.0000000E+00   0.0000000E+00
   0.4613091E+01   0.8861666E+01   0.0000000E+00   0.0000000E+00   0.0000000E+00   0.0000000E+00   0.0000000E+00
   0.5000000E+01   0.8660254E+01  -0.2000000E+01   0.0000000E+00   0.0000000E+00   0.0000000E+00   0.0000000E+00
   0.5000000E+01   0.8660254E+01  -0.1500000E+01   0.0000000E+00   0.0000000E+00   0.0000000E+00   0.0000000E+00
   0.5000000E+01   0.8660254E+01  -0.1000000E+01   0.0000000E+00   0.0000000E+00   0.0000000E+00   0.0000000E+00
   0.5000000E+01   0.8660254E+01  -0.5000000E+00   0.0000000E+00   0.0000000E+00   0.0000000E+00   0.0000000E+00
   0.5000000E+01   0.8660254E+01   0.0000000E+00   0.0000000E+00   0.0000000E+00   0.0000000E+00   0.0000000E+00
   0.3420201E+01   0.9396926E+01  -0.2000000E+01   0.0000000E+00   0.0000000E+00   0.0000000E+00   0.0000000E+00
   0.3420201E+01   0.9396926E+01  -0.1500000E+01   0.0000000E+00   0.0000000E+00   0.0000000E+00   0.0000000E+00
   0.3420201E+01   0.9396926E+01  -0.1000000E+01   0.0000000E+00   0.0000000E+00   0.0000000E+00   0.0000000E+00
   0.3420201E+01   0.9396926E+01  -0.5000000E+00   0.0000000E+00   0.0000000E+00   0.0000000E+00   0.0000000E+00
   0.3420201E+01   0.9396926E+01   0.0000000E+00   0.0000000E+00   0.0000000E+00   0.0000000E+00   0.0000000E+00
   0.3823192E+01   0.9230001E+01  -0.2000000E+01   0.0000000E+00   0.0000000E+00   0.0000000E+00   0.0000000E+00
   0.3823192E+01   0.9230001E+01  -0.1500000E+01   0.0000000E+00   0.0000000E+00   0.0000000E+00   0.0000000E+00
   0.3823192E+01   0.9230001E+01  -0.1000000E+01   0.0000000E+00   0.0000000E+00   0.0000000E+00   0.0000000E+00
   0.3823192E+01   0.9230001E+01  -0.5000000E+00   0.0000000E+00   0.0000000E+00   0.0000000E+00   0.0000000E+00
   0.3823192E+01   0.9230001E+01   0.0000000E+00   0.0000000E+00   0.0000000E+00   0.0000000E+00   0.0000000E+00
   0.4226183E+01   0.9063078E+01  -0.2000000E+01   0.0000000E+00   0.0000000E+00   0.0000000E+00   0.0000000E+00
   0.4226183E+01   0.9063078E+01  -0.1500000E+01   0.0000000E+00   0.0000000E+00   0.0000000E+00   0.0000000E+00
   0.4226183E+01   0.9063078E+01  -0.1000000E+01   0.0000000E+00   0.0000000E+00   0.0000000E+00   0.0000000E+00
   0.4226183E+01   0.9063078E+01  -0.5000000E+00   0.0000000E+00   0.0000000E+00   0.0000000E+00   0.0000000E+00
   0.4226183E+01   0.9063078E+01   0.0000000E+00   0.0000000E+00   0.0000000E+00   0.0000000E+00   0.0000000E+00
   0.2588190E+01   0.9659258E+01  -0.2000000E+01   0.0000000E+00   0.0000000E+00   0.0000000E+00   0.0000000E+00
   0.2588190E+01   0.9659258E+01  -0.1500000E+01   0.0000000E+00   0.0000000E+00   0.0000000E+00   0.0000000E+00
   0.2588190E+01   0.9659258E+01  -0.1000000E+01   0.0000000E+00   0.0000000E+00   0.0000000E+00   0.0000000E+00
   0.2588190E+01   0.9659258E+01  -0.5000000E+00   0.0000000E+00   0.0000000E+00   0.0000000E+00   0.0000000E+00
   0.2588190E+01   0.9659258E+01   0.0000000E+00   0.0000000E+00   0.0000000E+00   0.0000000E+00   0.0000000E+00
   0.3004196E+01   0.9528091E+01  -0.2000000E+01   0.0000000E+00   0.0000000E+00   0.0000000E+00   0.0000000E+00
   0.3004196E+01   0.9528091E+01  -0.1500000E+01   0.0000000E+00   0.0000000E+00   0.0000000E+00   0.0000000E+00
   0.3004196E+01   0.9528091E+01  -0.1000000E+01   0.0000000E+00   0.0000000E+00   0.0000000E+00   0.0000000E+00
   0.3004196E+01   0.9528091E+01  -0.5000000E+00   0.0000000E+00   0.0000000E+00   0.0000000E+00   0.0000000E+00
   0.3004196E+01   0.9528091E+01   0.0000000E+00   0.0000000E+00   0.0000000E+00   0.0000000E+00   0.0000000E+00
   0.3420201E+01   0.9396926E+01  -0.2000000E+01   0.0000000E+00   0.0000000E+00   0.0000000E+00   0.0000000E+00
   0.3420201E+01   0.9396926E+01  -0.1500000E+01   0.0000000E+00   0.0000000E+00   0.0000000E+00   0.0000000E+00
   0.3420201E+01   0.9396926E+01  -0.1000000E+01   0.0000000E+00   0.0000000E+00   0.0000000E+00   0.0000000E+00
   0.3420201E+01   0.9396926E+01  -0.5000000E+00   0.0000000E+00   0.0000000E+00   0.0000000E+00   0.0000000E+00
   0.3420201E+01   0.9396926E+01   0.0000000E+00   0.0000000E+00   0.0000000E+00   0.0000000E+00   0.0000000E+00
   0.1736482E+01   0.9848078E+01  -0.2000000E+01   0.0000000E+00   0.0000000E+00   0.0000000E+00   0.0000000E+00
   0.1736482E+01   0.9848078E+01  -0.1500000E+01   0.0000000E+00   0.0000000E+00   0.0000000E+00   0.0000000E+00
   0.1736482E+01   0.9848078E+01  -0.1000000E+01   0.0000000E+00   0.0000000E+00   0.0000000E+00   0.0000000E+00
   0.1736482E+01   0.9848078E+01  -0.5000000E+00   0.0000000E+00   0.0000000E+00   0.0000000E+00   0.0000000E+00
   0.1736482E+01   0.9848078E+01   0.0000000E+00   0.0000000E+00   0.0000000E+00   0.0000000E+00   0.0000000E+00
   0.2162336E+01   0.9753668E+01  -0.2000000E+01   0.0000000E+00   0.0000000E+00   0.0000000E+00   0.0000000E+00
   0.2162336E+01   0.9753668E+01  -0.1500000E+01   0.0000000E+00   0.0000000E+00   0.0000000E+00   0.0000000E+00
   0.2162336E+01   0.9753668E+01  -0.1000000E+01   0.0000000E+00   0.0000000E+00   0.0000000E+00   0.0000000E+00
   0.2162336E+01   0.9753668E+01  -0.5000000E+00   0.0000000E+00   0.0000000E+00   0.0000000E+00   0.0000000E+00
   0.2162336E+01   0.9753668E+01   0.0000000E+00   0.0000000E+00   0.0000000E+00   0.0000000E+00   0.0000000E+00
   0.2588190E+01   0.9659258E+01  -0.2000000E+01   0.0000000E+00   0.0000000E+00   0.0000000E+00   0.0000000E+00
   0.2588190E+01   0.9659258E+01  -0.1500000E+01   0.0000000E+00   0.0000000E+00   0.0000000E+00   0.0000000E+00
   0.2588190E+01   0.9659258E+01  -0.1000000E+01   0.0000000E+00   0.0000000E+00   0.0000000E+00   0.0000000E+00
   0.2588190E+01   0.9659258E+01  -0.5000000E+00   0.0000000E+00   0.0000000E+00   0.0000000E+00   0.0000000E+00
   0.2588190E+01   0.9659258E+01   0.0000000E+00   0.0000000E+00   0.0000000E+00   0.0000000E+00   0.0000000E+00
   0.8715574E+00   0.9961947E+01  -0.2000000E+01   0.0000000E+00   0.0000000E+00   0.0000000E+00   0.0000000E+00
   0.8715574E+00   0.9961947E+01  -0.1500000E+01   0.0000000E+00   0.0000000E+00   0.0000000E+00   0.0000000E+00
   0.8715574E+00   0.9961947E+01  -0.1000000E+01   0.0000000E+00   0.0000000E+00   0.0000000E+00   0.0000000E+00
   0.8715574E+00   0.9961947E+01  -0.5000000E+00   0.0000000E+00   0.0000000E+00   0.0000000E+00   0.0000000E+00
   0.8715574E+00   0.9961947E+01   0.0000000E+00   0.0000000E+00   0.0000000E+00   0.0000000E+00   0.0000000E+00
   0.1304020E+01   0.9905012E+01  -0.2000000E+01   0.0000000E+00   0.0000000E+00   0.0000000E+00   0.0000000E+00
   0.1304020E+01   0.9905012E+01  -0.1500000E+01   0.0000000E+00   0.0000000E+00   0.0000000E+00   0.0000000E+00
   0.1304020E+01   0.9905012E+01  -0.1000000E+01   0.0000000E+00   0.0000000E+00   0.0000000E+00   0.0000000E+00
   0.1304020E+01   0.9905012E+01  -0.5000000E+00   0.0000000E+00   0.0000000E+00   0.0000000E+00   0.0000000E+00
   0.1304020E+01   0.9905012E+01   0.0000000E+00   0.0000000E+00   0.0000000E+00   0.0000000E+00   0.0000000E+00
   0.1736482E+01   0.9848078E+01  -0.2000000E+01   0.0000000E+00   0.0000000E+00   0.0000000E+00   0.0000000E+00
   0.1736482E+01   0.9848078E+01  -0.1500000E+01   0.0000000E+00   0.0000000E+00   0.0000000E+00   0.0000000E+00
   0.1736482E+01   0.9848078E+01  -0.1000000E+01   0.0000000E+00   0.0000000E+00   0.0000000E+00   0.0000000E+00
   0.1736482E+01   0.9848078E+01  -0.5000000E+00   0.0000000E+00   0.0000000E+00   0.0000000E+00   0.0000000E+00
   0.1736482E+01   0.9848078E+01   0.0000000E+00   0.0000000E+00   0.0000000E+00   0.0000000E+00   0.0000000E+00
   0.0000000E+00   0.1000000E+02  -0.2000000E+01   0.0000000E+00   0.0000000E+00   0.0000000E+00   0.0000000E+00
   0.0000000E+00   0.1000000E+02  -0.1500000E+01   0.0000000E+00   0.0000000E+00   0.0000000E+00   0.0000000E+00
   0.0000000E+00   0.1000000E+02  -0.1000000E+01   0.0000000E+00   0.0000000E+00   0.0000000E+00   0.0000000E+00
   0.0000000E+00   0.1000000E+02  -0.5000000E+00   0.0000000E+00   0.0000000E+00   0.0000000E+00   0.0000000E+00
   0.0000000E+00   0.1000000E+02   0.0000000E+00   0.0000000E+00   0.0000000E+00   0.0000000E+00   0.0000000E+00
   0.4357787E+00   0.9980974E+01  -0.2000000E+01   0.0000000E+00   0.0000000E+00   0.0000000E+00   0.0000000E+00
   0.4357787E+00   0.9980974E+01  -0.1500000E+01   0.0000000E+00   0.0000000E+00   0.0000000E+00   0.0000000E+00
   0.4357787E+00   0.9980974E+01  -0.1000000E+01   0.0000000E+00   0.0000000E+00   0.0000000E+00   0.0000000E+00
   0.4357787E+00   0.9980974E+01  -0.5000000E+00   0.0000000E+00   0.0000000E+00   0.0000000E+00   0.0000000E+00