VARIABLES="w (rad/s)"  
"abs(F   1   1)" "angle(F   1   1)"
"abs(F   1   2)" "angle(F   1   2)"
"abs(F   1   3)" "angle(F   1   3)"
"abs(F   1   4)" "angle(F   1   4)"
"abs(F   1   5)" "angle(F   1   5)"
"abs(F   1   6)" "angle(F   1   6)"
Zone t="Diffraction force - beta =   0.000 deg",I=   800,F=POINT
  0.1000000E+00  0.1185005E+01 -0.1570791E+01  0.8668433E-07 -0.1459270E+01  0.1597322E+00 -0.3133399E+01  0.1259195E-08 -0.1940943E+01  0.5580832E-01 -0.1570788E+01  0.2307227E-07 -0.1571223E+01
  0.2000000E+00  0.3052851E+01 -0.1570782E+01  0.9738932E-07 -0.1947612E+01  0.6499017E+00 -0.3133285E+01  0.9489336E-09  0.2474177E+01  0.1900460E+00 -0.1570778E+01  0.1677120E-06  0.1570403E+01
  0.3000000E+00  0.4145949E+01 -0.1570757E+01  0.2920186E-06 -0.1717469E+01  0.1445239E+01 -0.3133236E+01  0.1106196E-07 -0.4442289E+00  0.2304591E+00 -0.1570742E+01  0.1621103E-06  0.1572062E+01
  0.4000000E+00  0.5540197E+01 -0.1570724E+01  0.3218166E-06 -0.1519515E+01  0.2563944E+01 -0.3133262E+01  0.1141136E-07 -0.2931428E+01  0.3049143E+00 -0.1570695E+01  0.2258098E-06  0.1577606E+01
  0.5000000E+00  0.6945054E+01 -0.1570681E+01  0.4433073E-07  0.2448241E+01  0.3999118E+01 -0.3133309E+01  0.1438150E-07  0.3064112E+01  0.3773270E+00 -0.1570631E+01  0.3815113E-06  0.1575907E+01
  0.6000000E+00  0.8364168E+01 -0.1570626E+01  0.3953364E-06 -0.6016504E+00  0.5749425E+01 -0.3133376E+01  0.1540174E-07  0.8904236E-01  0.4472595E+00 -0.1570549E+01  0.8861125E-06 -0.1570686E+01
  0.7000000E+00  0.9798660E+01 -0.1570558E+01  0.2288290E-06  0.1601071E+01  0.7812625E+01 -0.3133460E+01  0.4947451E-07  0.2870947E+01  0.5139270E+00 -0.1570446E+01  0.4675666E-06 -0.1557885E+01
  0.8000000E+00  0.1125221E+02 -0.1570475E+01  0.1290941E-05  0.1584865E+01  0.1018631E+02 -0.3133561E+01  0.2223774E-07 -0.1617987E+00  0.5769210E+00 -0.1570319E+01  0.3133870E-06 -0.1542672E+01
  0.9000000E+00  0.1273064E+02 -0.1570376E+01  0.3174983E-06  0.1345148E+01  0.1287133E+02 -0.3133683E+01  0.1281101E-06 -0.2989072E+01  0.6358333E+00 -0.1570156E+01  0.2059351E-06  0.1593218E+01
  0.1000000E+01  0.1423475E+02 -0.1570258E+01  0.1741144E-05  0.1714102E+01  0.1585989E+02 -0.3133823E+01  0.4587248E-07  0.6333977E-01  0.6898474E+00 -0.1569957E+01  0.6364240E-06 -0.1609188E+01
  0.1100000E+01  0.1576867E+02 -0.1570118E+01  0.2627652E-05 -0.1896824E+01  0.1915586E+02 -0.3133986E+01  0.1289144E-06 -0.2363583E+00  0.7382498E+00 -0.1569716E+01  0.2738219E-05 -0.1556192E+01
  0.1200000E+01  0.1733786E+02 -0.1569953E+01  0.2485275E-05 -0.1834781E+01  0.2275041E+02 -0.3134169E+01  0.1295172E-06 -0.7382561E-01  0.7807549E+00 -0.1569417E+01  0.1500684E-05  0.1556205E+01
  0.1300000E+01  0.1894385E+02 -0.1569758E+01  0.6744648E-05 -0.1615846E+01  0.2664239E+02 -0.3134372E+01  0.2386899E-06  0.8261726E-01  0.8160626E+00 -0.1569043E+01  0.1610300E-05  0.1568903E+01
  0.1400000E+01  0.2059364E+02 -0.1569528E+01  0.5147504E-05  0.1402189E+01  0.3082668E+02 -0.3134610E+01  0.1001475E-06  0.3052820E+01  0.8439356E+00 -0.1568576E+01  0.1269590E-05 -0.1547221E+01
  0.1500000E+01  0.2229041E+02 -0.1569257E+01  0.3105112E-05  0.1846346E+01  0.3529432E+02 -0.3134870E+01  0.3813292E-06 -0.3034944E+01  0.8632484E+00 -0.1567995E+01  0.4004375E-05 -0.1584744E+01
  0.1600000E+01  0.2404110E+02 -0.1568936E+01  0.7461126E-06  0.2534548E+01  0.4005111E+02 -0.3135155E+01  0.9061941E-06 -0.3137417E+01  0.8732611E+00 -0.1567246E+01  0.1562091E-05 -0.1602070E+01
  0.1700000E+01  0.2585383E+02 -0.1568558E+01  0.2112241E-05 -0.3018353E+01  0.4508036E+02 -0.3135479E+01  0.7148025E-06 -0.3086555E+01  0.8736917E+00 -0.1566289E+01  0.4289408E-05 -0.1562426E+01
  0.1800000E+01  0.2772484E+02 -0.1568109E+01  0.2040514E-05 -0.2197886E+01  0.5037259E+02 -0.3135832E+01  0.9742681E-07 -0.2708135E+01  0.8619138E+00 -0.1565036E+01  0.3301016E-06 -0.1508417E+01
  0.1900000E+01  0.2967119E+02 -0.1567578E+01  0.7674793E-05 -0.1877563E+01  0.5593191E+02 -0.3136199E+01  0.7826255E-06 -0.9231216E-01  0.8384050E+00 -0.1563377E+01  0.1107932E-05  0.1549851E+01
  0.2000000E+01  0.3169616E+02 -0.1566947E+01  0.5964871E-05  0.1297773E+01  0.6173983E+02 -0.3136641E+01  0.3705067E-06  0.5906328E-01  0.8016902E+00 -0.1561115E+01  0.1399760E-05  0.1597041E+01
  0.2100000E+01  0.3380468E+02 -0.1566199E+01  0.1143447E-04 -0.1540774E+01  0.6778258E+02 -0.3137092E+01  0.5164125E-06  0.2130892E+01  0.7503504E+00 -0.1557962E+01  0.5609527E-05  0.1526345E+01
  0.2200000E+01  0.3600473E+02 -0.1565311E+01  0.2431734E-05 -0.2849288E+01  0.7404118E+02 -0.3137611E+01  0.6949555E-06  0.5872863E+00  0.6829767E+00 -0.1553359E+01  0.6110621E-05  0.1578113E+01
  0.2300000E+01  0.3830553E+02 -0.1564255E+01  0.1489161E-04  0.1674621E+01  0.8054874E+02 -0.3138108E+01  0.8908114E-06 -0.2711527E+01  0.5984939E+00 -0.1546346E+01  0.1390805E-05 -0.1365247E+01
  0.2400000E+01  0.4071129E+02 -0.1563002E+01  0.1621681E-04 -0.1772287E+01  0.8723992E+02 -0.3138643E+01  0.2999878E-06  0.1652444E+01  0.4955734E+00 -0.1534593E+01  0.2346977E-05  0.1732871E+01
  0.2500000E+01  0.4322713E+02 -0.1561520E+01  0.4978728E-05 -0.2226036E+01  0.9410583E+02 -0.3139215E+01  0.1123249E-05  0.7084405E-01  0.3723889E+00 -0.1512006E+01  0.1053041E-04  0.1542223E+01
  0.2600000E+01  0.4585734E+02 -0.1559770E+01  0.3969314E-04  0.1169935E+01  0.1011537E+03 -0.3139756E+01  0.2129725E-06  0.1680776E+01  0.2274062E+00 -0.1453780E+01  0.6504072E-05  0.1706830E+01
  0.2700000E+01  0.4861064E+02 -0.1557708E+01  0.1782821E-04  0.2874782E+00  0.1083634E+03 -0.3140319E+01  0.1435714E-05 -0.3554198E+00  0.6523234E-01 -0.1057317E+01  0.7185510E-06 -0.6061215E+00
  0.2800000E+01  0.5148501E+02 -0.1555294E+01  0.1347729E-04 -0.2012044E+00  0.1156968E+03 -0.3140819E+01  0.1522602E-05 -0.2883810E+00  0.1423859E+00  0.1297458E+01  0.3258048E-05 -0.1531708E+01
  0.2900000E+01  0.5447696E+02 -0.1552488E+01  0.6981144E-05 -0.6897106E+00  0.1231199E+03 -0.3141401E+01  0.2512320E-05 -0.1015439E+00  0.3613749E+00  0.1443740E+01  0.4839369E-05  0.1963879E+01
  0.3000000E+01  0.5758810E+02 -0.1549239E+01  0.1428933E-04 -0.2501200E+01  0.1307024E+03  0.3141588E+01  0.1487339E-05 -0.1109011E+00  0.6112975E+00  0.1482251E+01  0.5702085E-05 -0.1440481E+01
  0.3100000E+01  0.6081372E+02 -0.1545499E+01  0.1888386E-04 -0.4253322E+00  0.1383496E+03  0.3141315E+01  0.1066006E-05 -0.4106406E-01  0.8912432E+00  0.1499734E+01  0.2426764E-05 -0.1115746E+01
  0.3200000E+01  0.6414848E+02 -0.1541240E+01  0.2022888E-04 -0.2837372E+01  0.1460434E+03  0.3141270E+01  0.1479962E-05  0.3107361E+01  0.1201675E+01  0.1509728E+01  0.1541032E-04  0.1693058E+01
  0.3300000E+01  0.6755536E+02 -0.1536425E+01  0.7088743E-05 -0.1440797E+01  0.1537512E+03  0.3141160E+01  0.2471880E-05 -0.3136327E+01  0.1547738E+01  0.1516488E+01  0.3628740E-05 -0.8228140E+00
  0.3400000E+01  0.7104891E+02 -0.1531012E+01  0.3401715E-05 -0.1685543E+01  0.1615594E+03 -0.3141343E+01  0.3318742E-05  0.3135673E+01  0.1927872E+01  0.1521568E+01  0.7559790E-05 -0.1929937E+01
  0.3500000E+01  0.7461440E+02 -0.1524970E+01  0.1374960E-04 -0.2933103E+00  0.1693775E+03 -0.3140636E+01  0.1930789E-05  0.1687962E-01  0.2341321E+01  0.1525591E+01  0.4907827E-05 -0.1644539E+01
  0.3600000E+01  0.7819881E+02 -0.1518285E+01  0.7600609E-05 -0.2348124E+01  0.1771620E+03 -0.3139537E+01  0.1628859E-05  0.3029681E+01  0.2792362E+01  0.1529228E+01  0.4169752E-05 -0.1194595E+01
  0.3700000E+01  0.8180531E+02 -0.1510956E+01  0.8013608E-04  0.2777130E+01  0.1849243E+03 -0.3138221E+01  0.7746983E-06  0.2792643E+01  0.3279422E+01  0.1532662E+01  0.1938052E-04 -0.1560329E+01
  0.3800000E+01  0.8540901E+02 -0.1502945E+01  0.2251037E-04 -0.2986227E+01  0.1926794E+03 -0.3136254E+01  0.4289864E-05 -0.2441752E+00  0.3803760E+01  0.1536127E+01  0.2383776E-05 -0.2151021E+01
  0.3900000E+01  0.8898962E+02 -0.1494226E+01  0.1951226E-04 -0.1853392E+01  0.2004204E+03 -0.3133651E+01  0.2463939E-05 -0.2978528E+01  0.4363933E+01  0.1539706E+01  0.5470202E-05 -0.1480287E+01
  0.4000000E+01  0.9251101E+02 -0.1484814E+01  0.1600410E-04 -0.2905539E+00  0.2080871E+03 -0.3130593E+01  0.1405569E-05  0.1604863E+01  0.4959612E+01  0.1543483E+01  0.1081880E-04  0.1843914E+01
  0.4100000E+01  0.9594611E+02 -0.1474719E+01  0.3892277E-04  0.2038327E+01  0.2156626E+03 -0.3126956E+01  0.2977133E-05  0.7956268E+00  0.5590029E+01  0.1547556E+01  0.1009995E-04 -0.1497398E+01
  0.4200000E+01  0.9926782E+02 -0.1463947E+01  0.1313551E-03 -0.3086311E+01  0.2231666E+03 -0.3123077E+01  0.3794949E-05 -0.3133677E+01  0.6254852E+01  0.1551856E+01  0.1121020E-04 -0.8892351E+00
  0.4300000E+01  0.1024490E+03 -0.1452451E+01  0.6946539E-04 -0.2642488E+01  0.2305587E+03 -0.3117597E+01  0.8855398E-06 -0.2095471E+01  0.6952940E+01  0.1556713E+01  0.8630948E-05 -0.3675506E+00
  0.4400000E+01  0.1054632E+03 -0.1440258E+01  0.2616086E-04  0.1642913E+01  0.2378441E+03 -0.3111731E+01  0.6614160E-05  0.2981334E+01  0.7679755E+01  0.1561828E+01  0.3426717E-05  0.7252423E-01
  0.4500000E+01  0.1082736E+03 -0.1427404E+01  0.7128972E-04 -0.3001284E+00  0.2449533E+03 -0.3105028E+01  0.2706976E-05 -0.2947370E+01  0.8432478E+01  0.1567324E+01  0.1712713E-04 -0.1301368E+01
  0.4600000E+01  0.1108462E+03 -0.1413910E+01  0.5974804E-04  0.2388598E+01  0.2518763E+03 -0.3097448E+01  0.3281165E-05 -0.3050177E+01  0.9208982E+01  0.1573218E+01  0.1282957E-04  0.5391824E+00
  0.4700000E+01  0.1131531E+03 -0.1399812E+01  0.7722544E-04  0.1627735E+01  0.2586596E+03 -0.3089140E+01  0.2644377E-05  0.8949944E-01  0.1000654E+02  0.1579416E+01  0.1505647E-04  0.1759709E+01
  0.4800000E+01  0.1151588E+03 -0.1385098E+01  0.1023287E-03  0.7828033E+00  0.2651542E+03 -0.3079333E+01  0.5816647E-05  0.2018043E+01  0.1082186E+02  0.1586121E+01  0.8938577E-05 -0.1621064E+01
  0.4900000E+01  0.1168408E+03 -0.1369815E+01  0.8100893E-04  0.8775439E+00  0.2714447E+03 -0.3068544E+01  0.1359226E-05  0.3646233E+00  0.1164795E+02  0.1593108E+01  0.5942804E-05  0.2377373E+01
  0.5000000E+01  0.1181635E+03 -0.1354032E+01  0.6024450E-04  0.2185385E+01  0.2774460E+03 -0.3056627E+01  0.1013834E-05 -0.2446375E+01  0.1247991E+02  0.1600379E+01  0.8315066E-05 -0.3513711E+00
  0.5100000E+01  0.1190990E+03 -0.1337804E+01  0.2142783E-05 -0.2353060E+01  0.2831421E+03 -0.3043464E+01  0.5738887E-05  0.1892973E+01  0.1331152E+02  0.1607911E+01  0.1416938E-04 -0.1356478E+01
  0.5200000E+01  0.1196203E+03 -0.1321198E+01  0.1281291E-04 -0.2996702E+01  0.2885197E+03 -0.3028973E+01  0.3821253E-05 -0.2256938E+01  0.1413881E+02  0.1615651E+01  0.1137496E-04  0.1459071E+00
  0.5300000E+01  0.1197042E+03 -0.1304278E+01  0.9099306E-04  0.9106951E+00  0.2936024E+03 -0.3013174E+01  0.1089639E-05  0.2261031E+01  0.1495821E+02  0.1623475E+01  0.4855520E-04  0.1334410E+01
  0.5400000E+01  0.1193224E+03 -0.1287078E+01  0.1664829E-03 -0.1080640E+01  0.2981869E+03 -0.2995548E+01  0.6748684E-05  0.1781965E+01  0.1576114E+02  0.1631504E+01  0.1165521E-04 -0.9837847E+00
  0.5500000E+01  0.1184723E+03 -0.1269722E+01  0.4615389E-04  0.6647226E+00  0.3024324E+03 -0.2976413E+01  0.5185444E-05  0.2123093E+01  0.1654133E+02  0.1639464E+01  0.1689744E-04  0.1742572E+01
  0.5600000E+01  0.1171308E+03 -0.1252291E+01  0.1235974E-03  0.1898418E+01  0.3062039E+03 -0.2955558E+01  0.3902566E-05 -0.2367964E+01  0.1729068E+02  0.1647320E+01  0.2300281E-04  0.2122769E+01
  0.5700000E+01  0.1153033E+03 -0.1234910E+01  0.7253177E-04 -0.2252738E+00  0.3095049E+03 -0.2932858E+01  0.1336978E-05  0.1447149E+01  0.1800469E+02  0.1654988E+01  0.1051954E-04  0.1796126E+01
  0.5800000E+01  0.1129662E+03 -0.1217641E+01  0.2630438E-03  0.1429288E+01  0.3122561E+03 -0.2908199E+01  0.1496095E-04 -0.1977370E+01  0.1867648E+02  0.1662350E+01  0.2480600E-04  0.1695002E+01
  0.5900000E+01  0.1101380E+03 -0.1200625E+01  0.1430668E-03 -0.2114812E+01  0.3144885E+03 -0.2881478E+01  0.2895715E-05  0.1676763E+01  0.1930378E+02  0.1669290E+01  0.2649804E-04 -0.1028578E+01
  0.6000000E+01  0.1068191E+03 -0.1183947E+01  0.3510444E-04 -0.3206431E+00  0.3161001E+03 -0.2852505E+01  0.3491322E-05  0.1493405E+00  0.1988163E+02  0.1675716E+01  0.1181267E-04 -0.5886910E-01
  0.6100000E+01  0.1030259E+03 -0.1167733E+01  0.4224695E-04 -0.1021890E+01  0.3170621E+03 -0.2821142E+01  0.9438816E-05 -0.1349739E+01  0.2040495E+02  0.1681504E+01  0.2431399E-05  0.1340956E+00
  0.6200000E+01  0.9878598E+02 -0.1152151E+01  0.2532646E-03  0.1249147E+01  0.3174485E+03 -0.2787330E+01  0.4570454E-05 -0.1332861E-01  0.2087050E+02  0.1686478E+01  0.3735320E-04  0.1726474E+01
  0.6300000E+01  0.9411176E+02 -0.1137295E+01  0.3176193E-03  0.1792547E+01  0.3171095E+03 -0.2750922E+01  0.3251677E-05  0.2575614E+01  0.2127334E+02  0.1690520E+01  0.1815598E-04  0.2368081E+01
  0.6400000E+01  0.8902184E+02 -0.1123261E+01  0.6523322E-04 -0.1863128E+01  0.3158872E+03 -0.2711885E+01  0.1584776E-05 -0.8845345E+00  0.2161097E+02  0.1693491E+01  0.3606486E-04 -0.2353527E+01
  0.6500000E+01  0.8357414E+02 -0.1110278E+01  0.2779306E-03 -0.1635356E+01  0.3140178E+03 -0.2670012E+01  0.9298960E-05 -0.7896857E+00  0.2188795E+02  0.1695247E+01  0.2443141E-04 -0.2296369E+00
  0.6600000E+01  0.7778264E+02 -0.1098400E+01  0.3786858E-03 -0.1339282E+01  0.3113042E+03 -0.2625282E+01  0.5420939E-05  0.1559311E+01  0.2210353E+02  0.1695656E+01  0.1759245E-04  0.1745031E+01
  0.6700000E+01  0.7168835E+02 -0.1087776E+01  0.1733226E-03 -0.2203986E+01  0.3077681E+03 -0.2577627E+01  0.3224136E-05 -0.1519574E+01  0.2226139E+02  0.1694573E+01  0.5318446E-05  0.1132796E+01
  0.6800000E+01  0.6532582E+02 -0.1078520E+01  0.6409832E-04 -0.3050657E+00  0.3033432E+03 -0.2526990E+01  0.8233671E-05 -0.1224183E+01  0.2236259E+02  0.1691884E+01  0.1487984E-04 -0.2458882E+01
  0.6900000E+01  0.5874493E+02 -0.1070840E+01  0.3387431E-03 -0.1747996E+01  0.2981093E+03 -0.2473438E+01  0.2301376E-05  0.8972998E+00  0.2241111E+02  0.1687440E+01  0.2299436E-04  0.6200959E+00
  0.7000000E+01  0.5197938E+02 -0.1064868E+01  0.8738013E-04  0.3948600E+00  0.2920927E+03 -0.2417001E+01  0.3536998E-05  0.2726293E+01  0.2241193E+02  0.1681124E+01  0.2369279E-04 -0.8967910E+00
  0.7100000E+01  0.4506099E+02 -0.1060739E+01  0.1625433E-03 -0.1956900E+01  0.2852261E+03 -0.2357807E+01  0.1789322E-05  0.2654245E+00  0.2236944E+02  0.1672836E+01  0.5849291E-05 -0.2161208E+01
  0.7200000E+01  0.3802649E+02 -0.1058653E+01  0.1137438E-03  0.1303425E+01  0.2776245E+03 -0.2295987E+01  0.2611419E-05  0.6405187E+00  0.2229241E+02  0.1662502E+01  0.1381160E-04 -0.2572241E+01
  0.7300000E+01  0.3090866E+02 -0.1058907E+01  0.3766705E-04 -0.1492804E+00  0.2694281E+03 -0.2231717E+01  0.5634228E-05 -0.1015191E+00  0.2219030E+02  0.1650096E+01  0.3396760E-05  0.1535579E+01
  0.7400000E+01  0.2372899E+02 -0.1061898E+01  0.1958443E-03  0.3261210E+00  0.2606651E+03 -0.2165253E+01  0.1032332E-04 -0.2051173E+00  0.2207246E+02  0.1635642E+01  0.6431454E-05 -0.3081112E+01
  0.7500000E+01  0.1650447E+02 -0.1068641E+01  0.2416727E-03 -0.4678775E+00  0.2514345E+03 -0.2096873E+01  0.9027086E-05 -0.3507751E+00  0.2194853E+02  0.1619204E+01  0.1156017E-04 -0.2970577E+01
  0.7600000E+01  0.9249994E+01 -0.1083483E+01  0.2785335E-03  0.1234548E+01  0.2419120E+03 -0.2026895E+01  0.6677416E-05  0.4352690E+00  0.2182721E+02  0.1600903E+01  0.1100337E-04  0.2973269E+01
  0.7700000E+01  0.1976075E+01 -0.1173989E+01  0.2514203E-03  0.2439284E+01  0.2322020E+03 -0.1955678E+01  0.1025633E-04 -0.2991486E+00  0.2171787E+02  0.1580920E+01  0.3789530E-05  0.1290908E+01
  0.7800000E+01  0.5354117E+01  0.2104432E+01  0.4724694E-04 -0.1755628E+00  0.2224396E+03 -0.1883669E+01  0.1399972E-04 -0.3068513E+01  0.2162921E+02  0.1559514E+01  0.8179068E-05  0.3042902E+01
  0.7900000E+01  0.1271447E+02  0.2071149E+01  0.9667599E-04  0.1076649E+01  0.2127731E+03 -0.1811308E+01  0.5335352E-05  0.2410094E+01  0.2157008E+02  0.1537028E+01  0.8027931E-05 -0.3080609E+01
  0.8000000E+01  0.2014792E+02  0.2052885E+01  0.4767042E-04  0.2578388E+01  0.2032859E+03 -0.1739029E+01  0.8727393E-05 -0.8474324E+00  0.2154897E+02  0.1513902E+01  0.9099550E-05 -0.2160713E+00
  0.8100000E+01  0.2768851E+02  0.2036465E+01  0.2092680E-04  0.2008970E+01  0.1940868E+03 -0.1667369E+01  0.9531615E-05  0.1882897E+00  0.2157416E+02  0.1490662E+01  0.8480943E-05  0.1500383E+00
  0.8200000E+01  0.3538157E+02  0.2020141E+01  0.1267263E-03 -0.2138712E+00  0.1852666E+03 -0.1596872E+01  0.6374873E-05  0.3233859E+00  0.2165261E+02  0.1467932E+01  0.9772160E-05  0.1294690E+01
  0.8300001E+01  0.4327822E+02  0.2003686E+01  0.1249632E-03 -0.3004332E+01  0.1768770E+03 -0.1527983E+01  0.2512885E-05 -0.1657198E+01  0.2178986E+02  0.1446375E+01  0.1269992E-04  0.3095965E+01
  0.8400001E+01  0.5144090E+02  0.1987290E+01  0.7871853E-05 -0.8233546E+00  0.1689542E+03 -0.1461357E+01  0.6069220E-05  0.3054235E+01  0.2198879E+02  0.1426654E+01  0.1613530E-04 -0.2211704E+01
  0.8500001E+01  0.5994374E+02  0.1971269E+01  0.2899967E-03  0.2467000E+00  0.1615517E+03 -0.1397411E+01  0.3684124E-05 -0.2606565E+01  0.2225101E+02  0.1409471E+01  0.2582741E-04 -0.2996388E+01
  0.8600000E+01  0.6884962E+02  0.1956167E+01  0.1245650E-03  0.3000569E+01  0.1546232E+03 -0.1336703E+01  0.6681136E-05 -0.1880617E+00  0.2257685E+02  0.1395438E+01  0.1519412E-04 -0.2344575E+01
  0.8700000E+01  0.7823650E+02  0.1942465E+01  0.3283547E-04  0.4128626E+00  0.1481829E+03 -0.1279779E+01  0.1058341E-04 -0.2910922E+01  0.2296508E+02  0.1385175E+01  0.2955179E-04  0.3107725E+01
  0.8800001E+01  0.8817204E+02  0.1930722E+01  0.6863529E-04  0.3074913E+01  0.1422052E+03 -0.1227024E+01  0.1321464E-04  0.6535044E-01  0.2341363E+02  0.1379251E+01  0.2133904E-04 -0.3139978E+01
  0.8900001E+01  0.9872398E+02  0.1921466E+01  0.5496726E-04 -0.2603966E+01  0.1366552E+03 -0.1178891E+01  0.1722004E-04  0.2753100E-03  0.2391914E+02  0.1378168E+01  0.1561357E-04  0.3700113E+00
  0.9000001E+01  0.1099316E+03  0.1915267E+01  0.1180168E-03 -0.3074212E+01  0.1314887E+03 -0.1135616E+01  0.1399418E-04 -0.3134969E+01  0.2447829E+02  0.1382386E+01  0.2512226E-04 -0.2988863E+01
  0.9100000E+01  0.1218403E+03  0.1912576E+01  0.7098627E-04 -0.3103976E+01  0.1266843E+03 -0.1097533E+01  0.9072939E-05 -0.2737585E+01  0.2508612E+02  0.1392301E+01  0.2722090E-04 -0.7883702E+00
  0.9200000E+01  0.1344621E+03  0.1913846E+01  0.4581589E-04 -0.5079886E+00  0.1222071E+03 -0.1064736E+01  0.1069182E-04 -0.1552892E+00  0.2573758E+02  0.1408236E+01  0.1500330E-04 -0.3100146E+01
  0.9300001E+01  0.1477899E+03  0.1919447E+01  0.1347718E-03  0.4345578E+00  0.1180261E+03 -0.1037515E+01  0.3170965E-05 -0.3880773E+00  0.2642593E+02  0.1430432E+01  0.2607543E-04 -0.1809479E+01
  0.9400001E+01  0.1617564E+03  0.1929721E+01  0.2896440E-03 -0.3016285E+01  0.1141131E+03 -0.1015673E+01  0.1161689E-04 -0.2622580E+01  0.2714416E+02  0.1459032E+01  0.2966182E-04  0.8128860E+00
  0.9500001E+01  0.1761993E+03  0.1945031E+01  0.8460931E-04 -0.4220148E+00  0.1104218E+03 -0.9991294E+00  0.2484738E-05 -0.4612527E+00  0.2786990E+02  0.1494055E+01  0.5303818E-05 -0.1347284E+01
  0.9600000E+01  0.1911304E+03  0.1965260E+01  0.1620516E-04  0.3028803E+01  0.1069882E+03 -0.9881798E+00  0.4299406E-05 -0.2644381E+01  0.2861856E+02  0.1535597E+01  0.9398574E-05  0.1312077E+01
  0.9700001E+01  0.2063029E+03  0.1990579E+01  0.6015475E-04  0.1327985E+01  0.1037731E+03 -0.9825431E+00  0.5135613E-05  0.4460058E+00  0.2936867E+02  0.1583498E+01  0.1286396E-04 -0.1234137E+01
  0.9800001E+01  0.2214712E+03  0.2020949E+01  0.7082492E-04 -0.2314038E+01  0.1007682E+03 -0.9820558E+00  0.7352914E-05  0.3118774E+01  0.3010708E+02  0.1637527E+01  0.7738647E-05 -0.7508242E+00
  0.9900001E+01  0.2363468E+03  0.2056203E+01  0.4482359E-04  0.6972139E+00  0.9796877E+02 -0.9865117E+00  0.5513263E-05 -0.2654876E+01  0.3082026E+02  0.1697340E+01  0.1843733E-04  0.1525082E+01
  0.1000000E+02  0.2505993E+03  0.2096055E+01  0.5885707E-04  0.2268052E+01  0.9537017E+02 -0.9956509E+00  0.1070058E-05 -0.1051354E+01  0.3149370E+02  0.1762450E+01  0.1982788E-05 -0.2777930E+01
  0.1010000E+02  0.2638646E+03  0.2140098E+01  0.4786502E-04 -0.7951255E+00  0.9296943E+02 -0.1009138E+01  0.4355789E-05 -0.2652700E+01  0.3211169E+02  0.1832236E+01  0.1405341E-04 -0.1386159E+01
  0.1020000E+02  0.2757782E+03  0.2187810E+01  0.6475853E-04 -0.1722024E+01  0.9076545E+02 -0.1026635E+01  0.2707701E-05 -0.1590498E+01  0.3265982E+02  0.1905952E+01  0.1626599E-04  0.1411880E+01
  0.1030000E+02  0.2859975E+03  0.2238561E+01  0.9727527E-05 -0.5509686E+00  0.8875562E+02 -0.1047749E+01  0.2855080E-05  0.1023557E+01  0.3312561E+02  0.1982725E+01  0.6386383E-05  0.1465330E+00
  0.1040000E+02  0.2942257E+03  0.2291640E+01  0.7845221E-04  0.3127965E+01  0.8693612E+02 -0.1072057E+01  0.8091026E-05 -0.1413832E+00  0.3349878E+02  0.2061591E+01  0.8567758E-05  0.1683181E+01
  0.1050000E+02  0.3002330E+03  0.2346305E+01  0.7624871E-04 -0.3133144E+01  0.8530219E+02 -0.1099104E+01  0.1984520E-05 -0.2931408E+01  0.3377225E+02  0.2141542E+01  0.3099053E-05  0.2729074E+01
  0.1060000E+02  0.3038860E+03  0.2401808E+01  0.3171473E-04  0.2455664E+01  0.8384673E+02 -0.1128423E+01  0.8309510E-05 -0.1972114E-02  0.3394367E+02  0.2221575E+01  0.5610464E-05 -0.3126373E+01
  0.1070000E+02  0.3051519E+03  0.2457443E+01  0.5419168E-04 -0.1488308E+00  0.8256067E+02 -0.1159536E+01  0.2468922E-05 -0.3064519E+01  0.3401544E+02  0.2300738E+01  0.8587894E-05 -0.2793776E+01
  0.1080000E+02  0.3040967E+03  0.2512579E+01  0.1249188E-04 -0.2293560E+01  0.8143212E+02 -0.1191955E+01  0.3704898E-05  0.2636099E+01  0.3399409E+02  0.2378185E+01  0.3425591E-05 -0.2865667E+01
  0.1090000E+02  0.3008745E+03  0.2566677E+01  0.1008445E-03  0.2933635E+01  0.8044724E+02 -0.1225200E+01  0.2240002E-05 -0.1070084E+01  0.3389079E+02  0.2453169E+01  0.1349618E-05 -0.4825241E+00
  0.1100000E+02  0.2956831E+03  0.2619353E+01  0.1208083E-03  0.3128936E+01  0.7958829E+02 -0.1258777E+01  0.1457834E-05  0.1006453E+01  0.3371524E+02  0.2525135E+01  0.8588065E-05 -0.3497931E-01
  0.1110000E+02  0.2887726E+03  0.2670340E+01  0.7478422E-04  0.3135424E+01  0.7883578E+02 -0.1292213E+01  0.5603340E-05  0.4389071E+00  0.3348001E+02  0.2593668E+01  0.1536931E-05  0.2522797E+01
  0.1120000E+02  0.2804140E+03  0.2719492E+01  0.1289294E-04  0.7675200E+00  0.7816721E+02 -0.1325084E+01  0.5525782E-05 -0.2214441E+01  0.3319778E+02  0.2658494E+01  0.1378216E-04  0.1369910E+01
  0.1130000E+02  0.2708728E+03  0.2766794E+01  0.1386904E-04  0.1192255E+00  0.7755383E+02 -0.1356941E+01  0.5953951E-05  0.2783893E+01  0.3287875E+02  0.2719511E+01  0.8373349E-05  0.3428249E+00
  0.1140000E+02  0.2604093E+03  0.2812344E+01  0.6304760E-04 -0.8975939E+00  0.7696722E+02 -0.1387425E+01  0.1179766E-04 -0.8380376E+00  0.3253324E+02  0.2776737E+01  0.5750931E-05  0.2417881E+01
  0.1150000E+02  0.2492661E+03  0.2856330E+01  0.6689817E-04 -0.2236248E+01  0.7637482E+02 -0.1416219E+01  0.4833239E-05 -0.1979704E+01  0.3217050E+02  0.2830294E+01  0.8606376E-05 -0.1199503E+01
  0.1160000E+02  0.2376624E+03  0.2899036E+01  0.1603329E-04  0.1748435E+01  0.7574206E+02 -0.1443046E+01  0.1259968E-04 -0.2284347E+01  0.3179851E+02  0.2880403E+01  0.1438891E-04 -0.1497391E+01
  0.1170000E+02  0.2257830E+03  0.2940847E+01  0.4342259E-04 -0.9182487E+00  0.7503187E+02 -0.1467675E+01  0.1068888E-04  0.6517181E+00  0.3142279E+02  0.2927380E+01  0.1730924E-04 -0.2146944E+01
  0.1180000E+02  0.2137897E+03  0.2982236E+01  0.4340588E-04 -0.2673303E+01  0.7420647E+02 -0.1489966E+01  0.6658751E-05  0.1779305E+01  0.3104833E+02  0.2971613E+01  0.1075886E-04 -0.1877127E+01
  0.1190000E+02  0.2018210E+03  0.3023769E+01  0.5108362E-04  0.3086296E+01  0.7322770E+02 -0.1509845E+01  0.4306190E-05  0.2196630E+01  0.3067884E+02  0.3013550E+01  0.1478431E-04 -0.1739952E+01
  0.1200000E+02  0.1899936E+03  0.3066116E+01  0.4575555E-04 -0.2474519E+01  0.7206018E+02 -0.1527342E+01  0.2022644E-05  0.1197223E+01  0.3031741E+02  0.3053692E+01  0.9438963E-05 -0.1487340E+01
  0.1210000E+02  0.1784025E+03  0.3110057E+01  0.2965550E-04  0.2427258E+01  0.7067086E+02 -0.1542565E+01  0.6153046E-05 -0.2051292E+00  0.2996527E+02  0.3092593E+01  0.6565406E-05 -0.1455747E+01
  0.1220000E+02  0.1671287E+03 -0.3126719E+01  0.3072091E-04 -0.2507606E+01  0.6903363E+02 -0.1555697E+01  0.2100998E-05  0.3136374E+01  0.2962289E+02  0.3130828E+01  0.4441734E-04  0.1537924E+01
  0.1230000E+02  0.1562285E+03 -0.3076772E+01  0.5471664E-04  0.3867510E+00  0.6712907E+02 -0.1567006E+01  0.2968447E-05  0.8139107E+00  0.2928687E+02 -0.3114122E+01  0.2560070E-04 -0.1658761E+01
  0.1240000E+02  0.1457512E+03 -0.3022088E+01  0.7817956E-04 -0.2867828E+01  0.6494585E+02 -0.1576807E+01  0.2372945E-05  0.9705294E+00  0.2895245E+02 -0.3075205E+01  0.1348353E-04  0.1674747E+01
  0.1250000E+02  0.1357416E+03 -0.2961358E+01  0.1656449E-04 -0.9663656E-02  0.6248717E+02 -0.1585504E+01  0.4142632E-05  0.2930218E+01  0.2861322E+02 -0.3034947E+01  0.7420303E-05  0.2316516E+01
  0.1260000E+02  0.1262373E+03 -0.2893152E+01  0.1772334E-04 -0.2619079E+01  0.5976262E+02 -0.1593537E+01  0.3717797E-05 -0.3626960E+00  0.2825868E+02 -0.2992707E+01  0.1183960E-04 -0.2055021E+01
  0.1270000E+02  0.1172802E+03 -0.2815976E+01  0.4070218E-04 -0.2661549E+00  0.5678942E+02 -0.1601358E+01  0.4727778E-05 -0.8359652E-01  0.2787564E+02 -0.2947891E+01  0.1074862E-04  0.1561339E+01
  0.1280000E+02  0.1089241E+03 -0.2728379E+01  0.4370694E-05  0.1350130E+01  0.5359784E+02 -0.1609485E+01  0.7031895E-05  0.3005501E+01  0.2745062E+02 -0.2900015E+01  0.7943246E-05  0.7195759E+00
  0.1290000E+02  0.1012347E+03 -0.2629105E+01  0.6200802E-04  0.2785691E+01  0.5022135E+02 -0.1618439E+01  0.8826518E-05 -0.2989282E+01  0.2696859E+02 -0.2848732E+01  0.1604777E-04  0.2673273E+01
  0.1300000E+02  0.9429212E+02 -0.2517301E+01  0.7376673E-04 -0.1360507E+00  0.4669794E+02 -0.1628759E+01  0.6075480E-05 -0.3088752E+01  0.2641499E+02 -0.2793843E+01  0.1079869E-04 -0.2624216E+01
  0.1310000E+02  0.8818262E+02 -0.2392833E+01  0.5874818E-04 -0.1566795E+00  0.4306623E+02 -0.1641005E+01  0.5127717E-05 -0.1726025E+00  0.2577699E+02 -0.2735317E+01  0.2241397E-04  0.1447930E+01
  0.1320000E+02  0.8298731E+02 -0.2256585E+01  0.1254259E-04 -0.9556484E-02  0.3936716E+02 -0.1655834E+01  0.2640937E-05  0.1365647E-01  0.2504564E+02 -0.2673311E+01  0.1462676E-04  0.2471853E+01
  0.1330000E+02  0.7876218E+02 -0.2110692E+01  0.7082786E-04  0.2655187E+01  0.3564081E+02 -0.1674028E+01  0.7030116E-05 -0.9511109E-01  0.2421740E+02 -0.2608125E+01  0.1328527E-04 -0.1686903E+01
  0.1340000E+02  0.7551289E+02 -0.1958533E+01  0.4143938E-04 -0.2260944E+00  0.3192467E+02 -0.1696556E+01  0.7391952E-05  0.8029976E-01  0.2329419E+02 -0.2540191E+01  0.2342974E-04  0.1474211E+01
  0.1350000E+02  0.7317592E+02 -0.1804318E+01  0.2809987E-04 -0.3646320E+00  0.2825569E+02 -0.1724730E+01  0.8446892E-06 -0.1617364E+01  0.2228367E+02 -0.2470032E+01  0.1854470E-04 -0.6085138E+00
  0.1360000E+02  0.7161722E+02 -0.1652416E+01  0.1131511E-04  0.1871774E+01  0.2466695E+02 -0.1760393E+01  0.1019701E-05 -0.2657084E+01  0.2119754E+02 -0.2398185E+01  0.1905503E-04  0.4668999E+00
  0.1370000E+02  0.7064571E+02 -0.1506590E+01  0.6152988E-05  0.2242542E+01  0.2119055E+02 -0.1806234E+01  0.5342359E-05  0.2065899E+01  0.2005098E+02 -0.2325158E+01  0.3182613E-05  0.2625993E+01
  0.1380000E+02  0.7003794E+02 -0.1369457E+01  0.1982070E-04  0.2672571E+01  0.1785958E+02 -0.1866564E+01  0.2713465E-05 -0.3044846E+01  0.1885977E+02 -0.2251464E+01  0.7271276E-05 -0.3010079E+01
  0.1390000E+02  0.6957147E+02 -0.1242385E+01  0.2123820E-04 -0.2958531E+01  0.1470999E+02 -0.1948602E+01  0.3749376E-05  0.3103353E+01  0.1763932E+02 -0.2177528E+01  0.9902799E-05  0.7468159E+00
  0.1400000E+02  0.6904569E+02 -0.1125665E+01  0.1461679E-04  0.1353642E+01  0.1179437E+02 -0.2065162E+01  0.6576231E-05 -0.3052641E+01  0.1640426E+02 -0.2103753E+01  0.5489822E-05  0.7304303E-01
  0.1410000E+02  0.6829218E+02 -0.1018773E+01  0.1046608E-04 -0.3076283E+01  0.9201842E+01 -0.2239961E+01  0.8234757E-06 -0.2597990E+01  0.1516640E+02 -0.2030532E+01  0.7771786E-05 -0.2320867E+00
  0.1420000E+02  0.6718050E+02 -0.9206530E+00  0.1201524E-04 -0.3227648E+00  0.7112511E+01 -0.2514083E+01  0.1134266E-06 -0.1654407E+00  0.1393375E+02 -0.1958179E+01  0.2437543E-04  0.3140098E+01
  0.1430000E+02  0.6561887E+02 -0.8299606E+00  0.1559724E-05 -0.2291095E+01  0.5877951E+01 -0.2927069E+01  0.5830237E-06 -0.2358550E+01  0.1271206E+02 -0.1887031E+01  0.9417215E-05 -0.2379761E+01
  0.1440000E+02  0.6354758E+02 -0.7451553E+00  0.1505545E-04  0.2401241E+01  0.5883138E+01  0.2871366E+01  0.1143858E-05 -0.7551661E+00  0.1150457E+02 -0.1817451E+01  0.4037193E-05  0.2849180E+01
  0.1450000E+02  0.6093623E+02 -0.6645485E+00  0.2501615E-05 -0.1826617E+01  0.7026806E+01  0.2481308E+01  0.7392345E-06 -0.1106026E+01  0.1031152E+02 -0.1749786E+01  0.2425786E-05  0.3138339E+01
  0.1460000E+02  0.5777996E+02 -0.5862538E+00  0.1264340E-04 -0.4572749E+00  0.8841191E+01  0.2229321E+01  0.3578145E-05  0.2207796E+01  0.9131694E+01 -0.1684438E+01  0.4025039E-05 -0.3140342E+01
  0.1470000E+02  0.5409234E+02 -0.5080668E+00  0.1191362E-04  0.5646746E+00  0.1100392E+02  0.2073108E+01  0.2094146E-05  0.6121264E+00  0.7962555E+01 -0.1621869E+01  0.2490506E-05  0.1241446E+00
  0.1480000E+02  0.4991018E+02 -0.4272479E+00  0.1421028E-04 -0.8439022E+00  0.1337287E+02  0.1977083E+01  0.1057427E-05 -0.4174362E+00  0.6800846E+01 -0.1562752E+01  0.4118850E-05  0.2303175E+01
  0.1490000E+02  0.4529176E+02 -0.3400977E+00  0.1537508E-04 -0.2985096E+01  0.1587665E+02  0.1922846E+01  0.4376215E-05 -0.2854473E+01  0.5643228E+01 -0.1508144E+01  0.2919354E-05 -0.5029023E+00
  0.1500000E+02  0.4032675E+02 -0.2412844E+00  0.1825511E-04 -0.4152709E-01  0.1843576E+02  0.1901743E+01  0.1124379E-05  0.1413507E+01  0.4486700E+01 -0.1459914E+01  0.4669544E-05 -0.4116511E-02
  0.1510000E+02  0.3514804E+02 -0.1225508E+00  0.2904209E-04 -0.2866673E+01  0.2092068E+02  0.1908819E+01  0.2853878E-05 -0.8657238E-02  0.3329137E+01 -0.1422610E+01  0.6774269E-05 -0.1565018E+00