VARIABLES="w (rad/s)"  
"abs(F   1   1)" "angle(F   1   1)"
"abs(F   1   2)" "angle(F   1   2)"
"abs(F   1   3)" "angle(F   1   3)"
"abs(F   1   4)" "angle(F   1   4)"
"abs(F   1   5)" "angle(F   1   5)"
"abs(F   1   6)" "angle(F   1   6)"
Zone t="Excitation force - beta =   0.000 deg",I=   800,F=POINT
  0.1000000E+00  0.6849072E+01 -0.1570858E+01  0.1650953E-03  0.3141027E+01  0.3292061E+03 -0.3975575E-05  0.1634561E-04  0.2691775E-03  0.5383591E+00 -0.1570852E+01  0.2895624E-05 -0.3019508E+01
  0.2000000E+00  0.1438738E+02 -0.1570795E+01  0.3342998E-03 -0.3139023E+01  0.3279654E+03 -0.1646338E-04  0.2857703E-04 -0.3141242E+01  0.1154739E+01 -0.1570807E+01  0.5465560E-05 -0.1584650E+00
  0.3000000E+00  0.2116375E+02 -0.1570791E+01  0.9567312E-03 -0.3501943E-03  0.3259206E+03 -0.3705071E-04  0.5282695E-04 -0.3141537E+01  0.1676478E+01 -0.1570799E+01  0.8280783E-05 -0.2441277E+00
  0.4000000E+00  0.2826065E+02 -0.1570785E+01  0.3008682E-03 -0.3139932E+01  0.3230533E+03 -0.6611476E-04  0.9817533E-05 -0.3140015E+01  0.2231037E+01 -0.1570786E+01  0.9678828E-05 -0.2927661E+01
  0.5000000E+00  0.3539423E+02 -0.1570772E+01  0.4938503E-03 -0.1190112E-02  0.3193714E+03 -0.1037150E-03  0.3451826E-04  0.3141283E+01  0.2781910E+01 -0.1570774E+01  0.1639940E-04  0.3330862E+00
  0.6000000E+00  0.4257521E+02 -0.1570757E+01  0.8980911E-03  0.2698670E-03  0.3148786E+03 -0.1500372E-03  0.2384481E-04 -0.3140679E+01  0.3328258E+01 -0.1570752E+01  0.8412573E-05 -0.5431182E+00
  0.7000000E+00  0.4981173E+02 -0.1570745E+01  0.1065129E-02  0.1412305E-02  0.3095798E+03 -0.2052399E-03  0.1125563E-04  0.3738813E-03  0.3868865E+01 -0.1570757E+01  0.1505836E-04 -0.8935251E+00
  0.8000000E+00  0.5711525E+02 -0.1570735E+01  0.1794419E-03  0.3129177E+01  0.3034775E+03 -0.2695692E-03  0.6906922E-04  0.1219958E-02  0.4402902E+01 -0.1570730E+01  0.1359385E-04 -0.2719051E+01
  0.9000000E+00  0.6449959E+02 -0.1570713E+01  0.1700655E-03 -0.4840929E-02  0.2965764E+03 -0.3432637E-03  0.3190084E-04  0.2374519E-02  0.4929536E+01 -0.1570705E+01  0.7109370E-05  0.5935339E+00
  0.1000000E+01  0.7197390E+02 -0.1570686E+01  0.1108995E-02  0.1155866E-02  0.2888869E+03 -0.4265464E-03  0.6253331E-04  0.1423780E-02  0.5447486E+01 -0.1570682E+01  0.1716801E-04 -0.3051483E+01
  0.1100000E+01  0.7955138E+02 -0.1570660E+01  0.1516697E-02 -0.2403868E-02  0.2804085E+03 -0.5196389E-03  0.4006619E-04 -0.1840989E-02  0.5955599E+01 -0.1570656E+01  0.3344943E-04 -0.1650820E+01
  0.1200000E+01  0.8724700E+02 -0.1570635E+01  0.8723203E-03 -0.3136039E+01  0.2711553E+03 -0.6228718E-03  0.3627881E-04 -0.3138514E+01  0.6453133E+01 -0.1570628E+01  0.1942672E-04  0.2057733E+01
  0.1300000E+01  0.9507239E+02 -0.1570594E+01  0.6110130E-04 -0.3078900E+01  0.2611349E+03 -0.7366434E-03  0.7863638E-04  0.1350546E-02  0.6938285E+01 -0.1570590E+01  0.1321566E-04  0.9304497E+00
  0.1400000E+01  0.1030454E+03 -0.1570540E+01  0.3492119E-03  0.1032509E-01  0.2503580E+03 -0.8598072E-03  0.2525349E-04 -0.3140796E+01  0.7410286E+01 -0.1570539E+01  0.2687601E-04 -0.1399042E+01
  0.1500000E+01  0.1111806E+03 -0.1570489E+01  0.7878699E-04  0.3908241E-03  0.2388415E+03 -0.9934042E-03  0.1395040E-04 -0.3132169E+01  0.7867467E+01 -0.1570489E+01  0.1515903E-04 -0.9196010E+00
  0.1600000E+01  0.1194974E+03 -0.1570420E+01  0.1980592E-04  0.3135150E+01  0.2265873E+03 -0.1137873E-02  0.2158313E-04 -0.3141068E+01  0.8308533E+01 -0.1570423E+01  0.1340569E-04 -0.1428485E+01
  0.1700000E+01  0.1280160E+03 -0.1570343E+01  0.8567105E-03  0.3139025E+01  0.2136229E+03 -0.1290029E-02  0.8784047E-04  0.3139852E+01  0.8732504E+01 -0.1570343E+01  0.7549475E-05 -0.1781760E+01
  0.1800000E+01  0.1367458E+03 -0.1570252E+01  0.4559887E-03  0.9011041E-02  0.1999703E+03 -0.1451051E-02  0.1097346E-03 -0.3140589E+01  0.9136078E+01 -0.1570255E+01  0.9539102E-05 -0.2406982E+01
  0.1900000E+01  0.1457182E+03 -0.1570141E+01  0.9563518E-03 -0.3139481E+01  0.1856360E+03 -0.1625218E-02  0.4587084E-04 -0.3136801E+01  0.9518948E+01 -0.1570142E+01  0.4890536E-05 -0.2374116E+01
  0.2000000E+01  0.1549488E+03 -0.1570009E+01  0.1970234E-02  0.2020778E-02  0.1706553E+03 -0.1791368E-02  0.9386209E-04  0.3140908E+01  0.9878701E+01 -0.1570010E+01  0.3625362E-04 -0.1474660E+01
  0.2100000E+01  0.1644562E+03 -0.1569852E+01  0.1483605E-02 -0.3135078E+01  0.1550585E+03 -0.1967548E-02  0.6287279E-04  0.6842451E-02  0.1021289E+02 -0.1569854E+01  0.2255872E-04  0.1598475E+01
  0.2200000E+01  0.1742616E+03 -0.1569662E+01  0.1093937E-04  0.3070394E+01  0.1388827E+03 -0.2122478E-02  0.1098196E-03  0.3082193E-02  0.1051892E+02 -0.1569665E+01  0.1600367E-04  0.2603555E+01
  0.2300000E+01  0.1843837E+03 -0.1569438E+01  0.5090615E-03  0.3128409E+01  0.1221178E+03 -0.2298059E-02  0.5788528E-04 -0.5405700E-02  0.1079430E+02 -0.1569438E+01  0.2885205E-04  0.1554016E+01
  0.2400000E+01  0.1948371E+03 -0.1569168E+01  0.1624756E-02 -0.3128263E+01  0.1048516E+03 -0.2454057E-02  0.2995516E-04  0.3449827E-02  0.1103606E+02 -0.1569167E+01  0.2051047E-04  0.1526721E+01
  0.2500000E+01  0.2056321E+03 -0.1568844E+01  0.2262539E-02  0.5936702E-03  0.8711982E+02 -0.2568383E-02  0.3403483E-04  0.3134615E+01  0.1124041E+02 -0.1568848E+01  0.4361682E-04 -0.1955942E+01
  0.2600000E+01  0.2167751E+03 -0.1568464E+01  0.2297901E-03  0.3002758E+01  0.6894365E+02 -0.2694429E-02  0.1765117E-04  0.3124883E+01  0.1140322E+02 -0.1568465E+01  0.1496196E-04 -0.6044322E+00
  0.2700000E+01  0.2282717E+03 -0.1568010E+01  0.2885000E-03  0.2399451E-01  0.5037462E+02 -0.2740236E-02  0.1371532E-04 -0.3110102E+01  0.1152123E+02 -0.1568014E+01  0.1721915E-04  0.8521776E+00
  0.2800000E+01  0.2401124E+03 -0.1567473E+01  0.2951386E-04  0.1208340E+00  0.3148283E+02 -0.2842357E-02  0.4942279E-04 -0.8066191E-02  0.1158993E+02 -0.1567480E+01  0.1782293E-04 -0.1420380E+01
  0.2900000E+01  0.2522774E+03 -0.1566843E+01  0.1115087E-02 -0.3135007E+01  0.1233689E+02 -0.1914685E-02  0.2725067E-04 -0.3131408E+01  0.1160360E+02 -0.1566849E+01  0.1784861E-04  0.2187142E+01
  0.3000000E+01  0.2647467E+03 -0.1566107E+01  0.1840418E-02 -0.3134129E+01  0.7098480E+01  0.3141518E+01  0.2705099E-05 -0.2998903E+01  0.1155718E+02 -0.1566121E+01  0.1029191E-03 -0.1521408E+01
  0.3100000E+01  0.2774860E+03 -0.1565252E+01  0.3428374E-03 -0.3102260E+01  0.2669249E+02  0.3140156E+01  0.7520850E-04  0.2632920E-02  0.1144641E+02 -0.1565271E+01  0.5534475E-04 -0.1542855E+01
  0.3200000E+01  0.2904541E+03 -0.1564269E+01  0.1017692E-03 -0.3076615E+01  0.4639151E+02  0.3140577E+01  0.8967360E-04  0.3797985E-03  0.1126679E+02 -0.1564288E+01  0.6275621E-04  0.1542848E+01
  0.3300000E+01  0.3035721E+03 -0.1563150E+01  0.4343860E-03  0.1010214E-01  0.6612848E+02  0.3140586E+01  0.2607630E-04 -0.1172470E-01  0.1100919E+02 -0.1563166E+01  0.3671366E-04  0.1448318E+01
  0.3400000E+01  0.3168075E+03 -0.1561876E+01  0.1457375E-02  0.3137925E+01  0.8595545E+02 -0.3141123E+01  0.9770962E-05  0.4634926E-01  0.1067129E+02 -0.1561907E+01  0.1978765E-03 -0.1538362E+01
  0.3500000E+01  0.3300954E+03 -0.1560442E+01  0.3277066E-03 -0.3399464E-01  0.1057489E+03 -0.3140060E+01  0.1418029E-04 -0.3137997E+01  0.1025005E+02 -0.1560476E+01  0.1040524E-03 -0.1565616E+01
  0.3600000E+01  0.3433298E+03 -0.1558841E+01  0.2276145E-03 -0.3088899E+01  0.1254342E+03 -0.3138690E+01  0.6449192E-05 -0.3103320E+01  0.9737641E+01 -0.1558879E+01  0.1328124E-03  0.1521895E+01
  0.3700000E+01  0.3564586E+03 -0.1557071E+01  0.1633315E-02  0.1383797E-01  0.1449905E+03 -0.3137293E+01  0.4725970E-05 -0.3074369E+01  0.9132538E+01 -0.1557105E+01  0.1944713E-04 -0.7487861E+00
  0.3800000E+01  0.3694035E+03 -0.1555120E+01  0.6702489E-03  0.1957626E-02  0.1644042E+03 -0.3135336E+01  0.9041204E-04 -0.3127875E+01  0.8430528E+01 -0.1555156E+01  0.9957172E-04  0.1525887E+01
  0.3900000E+01  0.3820902E+03 -0.1552980E+01  0.1900681E-04 -0.2221986E+01  0.1836389E+03 -0.3132925E+01  0.4995936E-04 -0.3138899E+01  0.7630802E+01 -0.1553018E+01  0.7769810E-04 -0.1562311E+01
  0.4000000E+01  0.3944306E+03 -0.1550653E+01  0.5988414E-03 -0.3101335E+01  0.2026061E+03 -0.3130295E+01  0.4111851E-04  0.3105678E+01  0.6731791E+01 -0.1550676E+01  0.7156189E-05  0.2795930E+01
  0.4100000E+01  0.4063474E+03 -0.1548143E+01  0.7850453E-03  0.4473949E-01  0.2212608E+03 -0.3127326E+01  0.4575102E-04  0.5699043E-01  0.5732793E+01 -0.1548138E+01  0.5677939E-04 -0.1619888E+01
  0.4200000E+01  0.4177643E+03 -0.1545452E+01  0.3654459E-03 -0.3125863E+01  0.2395949E+03 -0.3124346E+01  0.1569524E-04 -0.2944001E-02  0.4633354E+01 -0.1545228E+01  0.5285914E-05  0.1564578E+01
  0.4300000E+01  0.4286068E+03 -0.1542570E+01  0.1640447E-02 -0.3127162E+01  0.2575398E+03 -0.3120111E+01  0.4305259E-04 -0.5226605E-01  0.3434175E+01 -0.1542281E+01  0.5068995E-04 -0.1591349E+01
  0.4400000E+01  0.4388049E+03 -0.1539506E+01  0.1532057E-03  0.2976994E+01  0.2750745E+03 -0.3115773E+01  0.4336846E-04  0.1269956E-01  0.2140008E+01 -0.1538605E+01  0.6714693E-04  0.1669039E+01
  0.4500000E+01  0.4482798E+03 -0.1536274E+01  0.7057241E-03 -0.2434173E-01  0.2921009E+03 -0.3110932E+01  0.9442230E-05 -0.2941956E-01  0.7542385E+00 -0.1531957E+01  0.5189702E-04 -0.1570391E+01
  0.4600000E+01  0.4569576E+03 -0.1532886E+01  0.2745772E-03  0.3021387E+01  0.3085835E+03 -0.3105564E+01  0.1875589E-04  0.1356522E-02  0.7198621E+00  0.1601774E+01  0.3199635E-04  0.1641695E+01
  0.4700000E+01  0.4647726E+03 -0.1529359E+01  0.7507503E-04  0.6988756E+00  0.3245414E+03 -0.3099795E+01  0.1293097E-04  0.3091875E+01  0.2277935E+01  0.1608671E+01  0.3713448E-04 -0.1961062E+01
  0.4800000E+01  0.4716539E+03 -0.1525701E+01  0.1562035E-03  0.4990007E+00  0.3397976E+03 -0.3093022E+01  0.1542582E-04  0.3658468E+00  0.3914633E+01  0.1613172E+01  0.1550079E-04  0.1610056E+01
  0.4900000E+01  0.4775470E+03 -0.1521934E+01  0.7360621E-04  0.2524961E+01  0.3544117E+03 -0.3085665E+01  0.3787084E-04  0.3120273E+01  0.5620485E+01  0.1617047E+01  0.2172791E-04 -0.1648784E+01
  0.5000000E+01  0.4823865E+03 -0.1518089E+01  0.3021648E-03  0.3011752E+01  0.3682725E+03 -0.3077615E+01  0.5823446E-05 -0.1304725E+00  0.7387567E+01  0.1620785E+01  0.3736734E-04 -0.1525639E+01
  0.5100000E+01  0.4861170E+03 -0.1514198E+01  0.2016502E-03  0.1665510E-01  0.3813384E+03 -0.3068785E+01  0.1091907E-04  0.2638217E+01  0.9206292E+01  0.1624474E+01  0.7813705E-04  0.1487411E+01
  0.5200000E+01  0.4886907E+03 -0.1510296E+01  0.3906216E-03 -0.3086813E+01  0.3935713E+03 -0.3059114E+01  0.3527452E-04 -0.3054142E+01  0.1106914E+02  0.1628101E+01  0.1763251E-03  0.1479826E+01
  0.5300000E+01  0.4900632E+03 -0.1506419E+01  0.1659503E-03  0.3020831E+00  0.4049714E+03 -0.3048612E+01  0.1860786E-05 -0.3063132E+01  0.1296826E+02  0.1631568E+01  0.3187139E-04 -0.7514082E+00
  0.5400000E+01  0.4901888E+03 -0.1502603E+01  0.3291978E-03 -0.4200493E+00  0.4153058E+03 -0.3036915E+01  0.1138760E-04  0.2480031E+01  0.1489083E+02  0.1635057E+01  0.9895051E-04  0.1473993E+01
  0.5500000E+01  0.4890546E+03 -0.1498897E+01  0.1791593E-03  0.2924947E+01  0.4247155E+03 -0.3024236E+01  0.5095012E-05  0.1509064E+01  0.1682579E+02  0.1638301E+01  0.2566258E-04  0.1774444E+01
  0.5600000E+01  0.4866288E+03 -0.1495350E+01  0.2194985E-03  0.2570041E+01  0.4330397E+03 -0.3010429E+01  0.3057632E-05 -0.1651424E+01  0.1876022E+02  0.1641316E+01  0.5755653E-04  0.1720461E+01
  0.5700000E+01  0.4829135E+03 -0.1492016E+01  0.1054116E-02 -0.1504180E-01  0.4402604E+03 -0.2995394E+01  0.4619998E-05  0.2932032E+01  0.2068461E+02  0.1644059E+01  0.3885707E-04  0.1658179E+01
  0.5800000E+01  0.4778834E+03 -0.1488947E+01  0.9651309E-03  0.2868143E+01  0.4462752E+03 -0.2979052E+01  0.1424342E-04 -0.1622633E+01  0.2258679E+02  0.1646467E+01  0.7637341E-04 -0.1646452E+01
  0.5900000E+01  0.4715622E+03 -0.1486199E+01  0.1348160E-03 -0.1833471E+01  0.4510939E+03 -0.2961312E+01  0.8040235E-05  0.2763611E+01  0.2445919E+02  0.1648482E+01  0.4749666E-04  0.1309072E+01
  0.6000000E+01  0.4639574E+03 -0.1483825E+01  0.7768569E-04  0.2836250E+01  0.4545926E+03 -0.2942043E+01  0.4270219E-05 -0.3100430E+01  0.2629155E+02  0.1650074E+01  0.1806182E-03  0.1502397E+01
  0.6100000E+01  0.4550939E+03 -0.1481883E+01  0.4603600E-03  0.1391000E-01  0.4567213E+03 -0.2921138E+01  0.2364231E-04 -0.3310275E+00  0.2807341E+02  0.1651185E+01  0.8569910E-04  0.1570962E+01
  0.6200000E+01  0.4450166E+03 -0.1480432E+01  0.4341988E-03  0.5650666E+00  0.4575378E+03 -0.2898521E+01  0.1062875E-04  0.3005048E+01  0.2979628E+02  0.1651732E+01  0.2024916E-03  0.1598261E+01
  0.6300000E+01  0.4337517E+03 -0.1479530E+01  0.7319892E-03  0.2759908E+01  0.4568746E+03 -0.2874101E+01  0.6810635E-05  0.2800251E+01  0.3144990E+02  0.1651675E+01  0.1263232E-03 -0.1682392E+01
  0.6400000E+01  0.4213373E+03 -0.1479236E+01  0.1187400E-03 -0.6292268E+00  0.4545652E+03 -0.2847880E+01  0.2014914E-04  0.2064050E-01  0.3302666E+02  0.1650967E+01  0.1336810E-03 -0.1746662E+01
  0.6500000E+01  0.4078503E+03 -0.1479603E+01  0.4606965E-03 -0.2488336E+01  0.4508302E+03 -0.2819628E+01  0.9736143E-05 -0.5658481E+00  0.3452626E+02  0.1649570E+01  0.2344463E-04  0.2280186E+00
  0.6600000E+01  0.3933256E+03 -0.1480691E+01  0.3955545E-03 -0.1810138E+01  0.4454717E+03 -0.2789365E+01  0.1824076E-04  0.2800638E+01  0.3594291E+02  0.1647456E+01  0.2662651E-04 -0.1707745E+01
  0.6700000E+01  0.3778268E+03 -0.1482556E+01  0.1260651E-03 -0.1180669E+01  0.4385135E+03 -0.2757018E+01  0.1167110E-04 -0.2956484E+01  0.3727565E+02  0.1644595E+01  0.9810557E-04 -0.1525461E+01
  0.6800000E+01  0.3614095E+03 -0.1485262E+01  0.1353699E-03 -0.7504687E-01  0.4298985E+03 -0.2722554E+01  0.9667026E-05 -0.1257468E+01  0.3852073E+02  0.1640978E+01  0.1969119E-04 -0.2200805E+01
  0.6900000E+01  0.3441471E+03 -0.1488874E+01  0.3623717E-03 -0.1322648E+01  0.4197300E+03 -0.2685970E+01  0.5254468E-05  0.3887505E+00  0.3967786E+02  0.1636578E+01  0.2781041E-04 -0.9278362E+00
  0.7000000E+01  0.3260952E+03 -0.1493471E+01  0.1070560E-03  0.2926757E+01  0.4080660E+03 -0.2647252E+01  0.7542554E-05  0.3052547E+01  0.4074752E+02  0.1631392E+01  0.9140358E-04 -0.1400735E+01
  0.7100000E+01  0.3073078E+03 -0.1499145E+01  0.1589701E-03 -0.1186441E+01  0.3948896E+03 -0.2606508E+01  0.7301289E-05  0.1276077E+00  0.4172990E+02  0.1625427E+01  0.2781654E-04 -0.1752370E+01
  0.7200000E+01  0.2878460E+03 -0.1506012E+01  0.1333371E-03  0.9788720E+00  0.3803754E+03 -0.2563754E+01  0.6257658E-05  0.1462324E+00  0.4262970E+02  0.1618703E+01  0.2268490E-04  0.2074470E+01
  0.7300000E+01  0.2677645E+03 -0.1514224E+01  0.9229913E-04  0.2351120E+00  0.3647338E+03 -0.2518994E+01  0.1180969E-04 -0.1465927E+00  0.4345238E+02  0.1611262E+01  0.9633768E-04  0.1579372E+01
  0.7400000E+01  0.2471098E+03 -0.1523994E+01  0.1039788E-03  0.2370838E+01  0.3480856E+03 -0.2472353E+01  0.7229809E-05 -0.5464473E+00  0.4420346E+02  0.1603159E+01  0.9509923E-04 -0.1632416E+01
  0.7500000E+01  0.2259255E+03 -0.1535627E+01  0.4340063E-03 -0.2583122E+00  0.3306303E+03 -0.2423908E+01  0.1299504E-04 -0.2306370E+00  0.4488894E+02  0.1594458E+01  0.1368144E-04 -0.2654138E+01
  0.7600000E+01  0.2042566E+03 -0.1549589E+01  0.2996436E-03  0.1079234E+01  0.3126502E+03 -0.2373657E+01  0.8690702E-05  0.2944117E+01  0.4551452E+02  0.1585233E+01  0.3797948E-04 -0.1847818E+01
  0.7700000E+01  0.1821428E+03 -0.1566603E+01  0.4402165E-03  0.2709861E+01  0.2943690E+03 -0.2321652E+01  0.1219935E-04 -0.2950929E+00  0.4608658E+02  0.1575567E+01  0.5261929E-04  0.1557685E+01
  0.7800000E+01  0.1596239E+03 -0.1587859E+01  0.2874509E-03  0.7572455E-02  0.2760460E+03 -0.2267928E+01  0.1411789E-04 -0.3097362E+01  0.4661177E+02  0.1565561E+01  0.1286052E-04 -0.2257735E+01
  0.7900000E+01  0.1367420E+03 -0.1615417E+01  0.9536960E-04  0.1318921E+01  0.2579503E+03 -0.2212431E+01  0.4504747E-05  0.1754115E+01  0.4709746E+02  0.1555333E+01  0.7195111E-04 -0.1677757E+01
  0.8000000E+01  0.1135565E+03 -0.1653149E+01  0.5007812E-04  0.8288080E+00  0.2402843E+03 -0.2155132E+01  0.9766709E-05 -0.6928796E+00  0.4755145E+02  0.1545024E+01  0.8628022E-05  0.9225050E-01
  0.8100000E+01  0.9016885E+02 -0.1709119E+01  0.4291881E-04  0.3125422E+01  0.2232743E+03 -0.2095994E+01  0.9959256E-05  0.1274277E+00  0.4798256E+02  0.1534797E+01  0.1298699E-03  0.1517496E+01
  0.8200000E+01  0.6681172E+02 -0.1802906E+01  0.1482351E-03 -0.2475240E+00  0.2071175E+03 -0.2034962E+01  0.7585167E-05  0.4465794E+00  0.4839948E+02  0.1524843E+01  0.5204757E-04 -0.1520343E+01
  0.8300001E+01  0.4421453E+02 -0.1993921E+01  0.9240745E-04 -0.2993263E+01  0.1919553E+03 -0.1971966E+01  0.3327457E-05 -0.1640271E+01  0.4881048E+02  0.1515368E+01  0.1237194E-03 -0.1676463E+01
  0.8400001E+01  0.2576865E+02 -0.2510862E+01  0.1591932E-04 -0.2697934E+01  0.1779140E+03 -0.1907167E+01  0.6991427E-05  0.3049371E+01  0.4922256E+02  0.1506583E+01  0.5652060E-04 -0.1756277E+01
  0.8500001E+01  0.2555471E+02  0.2725004E+01  0.3039759E-03  0.2330252E+00  0.1651001E+03 -0.1840551E+01  0.2621166E-05 -0.2603519E+01  0.4964240E+02  0.1498737E+01  0.3602549E-04  0.2387369E+01
  0.8600000E+01  0.4456676E+02  0.2190407E+01  0.1171578E-03  0.3045995E+01  0.1535217E+03 -0.1772612E+01  0.1134031E-04 -0.1096873E+00  0.5007648E+02  0.1492060E+01  0.6962464E-04 -0.1706336E+01
  0.8700000E+01  0.6876987E+02  0.1996720E+01  0.2376167E-04  0.5974362E+00  0.1432182E+03 -0.1703863E+01  0.1228369E-04 -0.2965199E+01  0.5052987E+02  0.1486819E+01  0.3010422E-04 -0.2924731E+01
  0.8800001E+01  0.9459633E+02  0.1905285E+01  0.1250569E-03  0.3086736E+01  0.1341612E+03 -0.1635003E+01  0.1803993E-04  0.1290160E-01  0.5100741E+02  0.1483298E+01  0.7071212E-04  0.1877645E+01
  0.8900001E+01  0.1212829E+03  0.1854204E+01  0.4024041E-04 -0.1831623E+01  0.1262953E+03 -0.1567047E+01  0.1740087E-04 -0.2867682E-02  0.5151233E+02  0.1481786E+01  0.2471038E-04 -0.9234942E+00
  0.9000001E+01  0.1485560E+03  0.1823371E+01  0.2911387E-03  0.3116837E+01  0.1195239E+03 -0.1501024E+01  0.1409602E-04 -0.3123301E+01  0.5204744E+02  0.1482595E+01  0.1377634E-03  0.1736519E+01
  0.9100000E+01  0.1762873E+03  0.1804567E+01  0.6749658E-04 -0.3006645E+01  0.1137595E+03 -0.1438128E+01  0.5014433E-05 -0.2318082E+01  0.5261278E+02  0.1486038E+01  0.4001998E-04  0.1056613E+01
  0.9200000E+01  0.2043632E+03  0.1793955E+01  0.3287271E-04 -0.2085298E+01  0.1088778E+03 -0.1379404E+01  0.2124807E-04 -0.9384278E-01  0.5320695E+02  0.1492427E+01  0.1852572E-04 -0.2940205E+01
  0.9300001E+01  0.2326685E+03  0.1789538E+01  0.1700956E-03  0.3872261E+00  0.1047590E+03 -0.1326068E+01  0.6092018E-05 -0.2864881E+01  0.5382508E+02  0.1502055E+01  0.1018121E-03 -0.1640127E+01
  0.9400001E+01  0.2610321E+03  0.1790227E+01  0.3477938E-03 -0.3048633E+01  0.1012666E+03 -0.1278706E+01  0.2726048E-04 -0.2956933E+01  0.5445978E+02  0.1515177E+01  0.2594767E-04  0.6189823E+00
  0.9500001E+01  0.2891862E+03  0.1795413E+01  0.1123030E-03 -0.7036155E-01  0.9825786E+02 -0.1237941E+01  0.8759658E-05 -0.3044828E+01  0.5508594E+02  0.1531999E+01  0.1949620E-04 -0.1462137E+01
  0.9600000E+01  0.3170387E+03  0.1804609E+01  0.7374038E-04  0.3071840E+01  0.9568708E+02 -0.1204463E+01  0.2265087E-05 -0.1678234E+01  0.5571417E+02  0.1552718E+01  0.3069763E-04 -0.1396781E+01
  0.9700001E+01  0.3442292E+03  0.1817552E+01  0.8596608E-04  0.6842006E+00  0.9343192E+02 -0.1178382E+01  0.1022480E-04  0.2594053E+00  0.5631577E+02  0.1577420E+01  0.4126880E-04 -0.1473629E+01
  0.9800001E+01  0.3703944E+03  0.1833987E+01  0.1682084E-03 -0.2789619E+01  0.9141732E+02 -0.1159761E+01  0.1018445E-04 -0.8708786E-01  0.5686830E+02  0.1606106E+01  0.2157710E-04 -0.1397292E+01
  0.9900001E+01  0.3951283E+03  0.1853631E+01  0.6510707E-04  0.3046386E+00  0.8958522E+02 -0.1148533E+01  0.8053735E-05 -0.2856244E+01  0.5734788E+02  0.1638675E+01  0.3876043E-04  0.1561330E+01
  0.1000000E+02  0.4179878E+03  0.1876149E+01  0.9715188E-04  0.2508763E+01  0.8789115E+02 -0.1144532E+01  0.9057823E-05 -0.2931784E-01  0.5772911E+02  0.1674901E+01  0.4536550E-04 -0.1560339E+01
  0.1010000E+02  0.4385087E+03  0.1901131E+01  0.1748029E-03 -0.2917250E+01  0.8630475E+02 -0.1147480E+01  0.3092779E-04 -0.7048000E-01  0.5798626E+02  0.1714426E+01  0.3185386E-04  0.1484140E+01
  0.1020000E+02  0.4562503E+03  0.1928083E+01  0.1021923E-03 -0.2473769E+01  0.8481010E+02 -0.1157093E+01  0.2405867E-04 -0.1026008E+00  0.5809659E+02  0.1756771E+01  0.5580024E-05 -0.1335358E+01
  0.1030000E+02  0.4708258E+03  0.1956429E+01  0.8774844E-04 -0.3059362E+01  0.8340044E+02 -0.1173025E+01  0.3616394E-05  0.7198032E+00  0.5804276E+02  0.1801333E+01  0.2791247E-04 -0.1383630E+01
  0.1040000E+02  0.4819366E+03  0.1985530E+01  0.2294590E-04  0.3004140E+01  0.8207697E+02 -0.1194894E+01  0.9924786E-05 -0.3084914E+01  0.5781376E+02  0.1847409E+01  0.2488893E-04  0.1626705E+01
  0.1050000E+02  0.4893981E+03  0.2014713E+01  0.1098403E-03  0.3199226E-02  0.8084800E+02 -0.1222273E+01  0.1797776E-04 -0.3088188E+01  0.5740622E+02  0.1894243E+01  0.1176792E-04 -0.1743061E+01
  0.1060000E+02  0.4931658E+03  0.2043314E+01  0.2250947E-03  0.8828070E-01  0.7972561E+02 -0.1254688E+01  0.1163575E-04 -0.3085432E+01  0.5682635E+02  0.1941060E+01  0.3757539E-04 -0.1709280E+01
  0.1070000E+02  0.4933359E+03  0.2070708E+01  0.2129360E-03 -0.5068782E-01  0.7872459E+02 -0.1291616E+01  0.2030472E-04  0.3117469E+01  0.5608848E+02  0.1987123E+01  0.2029538E-04 -0.2031910E+01
  0.1080000E+02  0.4901311E+03  0.2096350E+01  0.3066454E-03 -0.3434312E-01  0.7785898E+02 -0.1332460E+01  0.1987608E-05  0.1939054E+01  0.5521397E+02  0.2031768E+01  0.9199094E-05 -0.1891244E+01
  0.1090000E+02  0.4838796E+03  0.2119797E+01  0.9281385E-04  0.2439265E+00  0.7714125E+02 -0.1376563E+01  0.7963544E-05 -0.2677684E+00  0.5423009E+02  0.2074431E+01  0.2379196E-05 -0.2543702E+00
  0.1100000E+02  0.4749489E+03  0.2140726E+01  0.1353820E-03  0.3129376E+01  0.7657812E+02 -0.1423187E+01  0.6362451E-05  0.2954973E+01  0.5316202E+02  0.2114678E+01  0.1221544E-04 -0.9037975E+00
  0.1110000E+02  0.4637509E+03  0.2158938E+01  0.1154985E-03  0.3131647E+01  0.7617123E+02 -0.1471550E+01  0.3384411E-04  0.3068026E+01  0.5203648E+02  0.2152211E+01  0.4973143E-05 -0.2537322E+01
  0.1120000E+02  0.4506959E+03  0.2174349E+01  0.1735050E-03  0.3085398E+01  0.7591395E+02 -0.1520877E+01  0.1275919E-04 -0.2803021E+01  0.5087793E+02  0.2186859E+01  0.1051069E-04  0.1314942E+01
  0.1130000E+02  0.4361614E+03  0.2186982E+01  0.1574017E-03  0.3348543E-01  0.7578710E+02 -0.1570361E+01  0.1947823E-04  0.3043746E+01  0.4970536E+02  0.2218580E+01  0.1310560E-04  0.8003419E+00
  0.1140000E+02  0.4204875E+03  0.2196956E+01  0.7289614E-04 -0.2398686E+01  0.7576588E+02 -0.1619283E+01  0.9497405E-05 -0.1921407E+01  0.4853453E+02  0.2247451E+01  0.5878727E-05 -0.3136065E+01
  0.1150000E+02  0.4039678E+03  0.2204469E+01  0.5408215E-04 -0.1386630E+01  0.7581481E+02 -0.1667015E+01  0.1701479E-04 -0.2879470E+01  0.4737711E+02  0.2273645E+01  0.6476131E-05 -0.9402997E+00
  0.1160000E+02  0.3868419E+03  0.2209782E+01  0.1428918E-03  0.3015877E+01  0.7589114E+02 -0.1713027E+01  0.1104677E-04 -0.2118868E+01  0.4623992E+02  0.2297435E+01  0.8806577E-05 -0.1337174E+01
  0.1170000E+02  0.3692894E+03  0.2213198E+01  0.8641135E-04 -0.2718679E+01  0.7594482E+02 -0.1756914E+01  0.8513450E-05  0.8730826E+00  0.4512502E+02  0.2319151E+01  0.1847476E-04 -0.2014149E+01
  0.1180000E+02  0.3514410E+03  0.2215067E+01  0.2173769E-03 -0.8938574E-01  0.7592300E+02 -0.1798444E+01  0.2553104E-04  0.2572720E+00  0.4403064E+02  0.2339202E+01  0.6137485E-05 -0.2018767E+01
  0.1190000E+02  0.3333881E+03  0.2215756E+01  0.1309544E-03  0.5223772E-02  0.7577127E+02 -0.1837532E+01  0.2021506E-04  0.1721775E+00  0.4295178E+02  0.2358046E+01  0.1692577E-04 -0.1798776E+01
  0.1200000E+02  0.3151816E+03  0.2215661E+01  0.1786885E-03 -0.2982884E+01  0.7543913E+02 -0.1874257E+01  0.1328795E-04  0.1332443E+00  0.4188075E+02  0.2376190E+01  0.5070937E-05 -0.1220160E+01
  0.1210000E+02  0.2968416E+03  0.2215177E+01  0.1302805E-03  0.2995714E+01  0.7488035E+02 -0.1908832E+01  0.1341847E-04 -0.8559390E-01  0.4080667E+02  0.2394167E+01  0.8122800E-05 -0.1291109E+01
  0.1220000E+02  0.2783683E+03  0.2214698E+01  0.3588148E-04 -0.5184845E+00  0.7405840E+02 -0.1941576E+01  0.1079023E-04  0.3506260E-01  0.3971701E+02  0.2412540E+01  0.3352569E-04  0.1512602E+01
  0.1230000E+02  0.2597285E+03  0.2214602E+01  0.3139751E-04  0.2315616E+01  0.7294703E+02 -0.1972906E+01  0.2585347E-04  0.7692874E-01  0.3859445E+02  0.2431881E+01  0.4561245E-04 -0.1595888E+01
  0.1240000E+02  0.2408850E+03  0.2215235E+01  0.1053167E-03 -0.2927723E+01  0.7153112E+02 -0.2003294E+01  0.2220309E-04  0.8516406E-01  0.3742062E+02  0.2452776E+01  0.2404222E-04  0.1637773E+01
  0.1250000E+02  0.2218021E+03  0.2216901E+01  0.1298932E-04  0.3036926E+01  0.6981343E+02 -0.2033246E+01  0.1519022E-05  0.2413614E+01  0.3617728E+02  0.2475793E+01  0.2737118E-04  0.1752326E+01
  0.1260000E+02  0.2024490E+03  0.2219817E+01  0.3912998E-04 -0.2953574E+01  0.6780560E+02 -0.2063296E+01  0.3166658E-05 -0.4868735E+00  0.3484479E+02  0.2501458E+01  0.4200667E-04 -0.1707627E+01
  0.1270000E+02  0.1828120E+03  0.2224114E+01  0.8820721E-04 -0.1201641E+00  0.6552774E+02 -0.2093962E+01  0.6026313E-05 -0.6456051E-01  0.3340456E+02  0.2530253E+01  0.3524931E-04  0.1583749E+01
  0.1280000E+02  0.1629106E+03  0.2229813E+01  0.8021687E-04  0.3073532E+01  0.6301405E+02 -0.2125734E+01  0.4105962E-05  0.2840622E+01  0.3184274E+02  0.2562638E+01  0.6180340E-05 -0.1983327E+00
  0.1290000E+02  0.1428008E+03  0.2236796E+01  0.4414396E-04  0.2659282E+01  0.6030086E+02 -0.2159068E+01  0.1287070E-04 -0.9943006E-01  0.3015036E+02  0.2599024E+01  0.2302293E-04 -0.2275639E+01
  0.1300000E+02  0.1225815E+03  0.2244811E+01  0.1552326E-03 -0.7077178E-01  0.5742755E+02 -0.2194370E+01  0.2367370E-05 -0.3009628E+01  0.2832565E+02  0.2639809E+01  0.2062430E-04  0.2056280E+01
  0.1310000E+02  0.1023985E+03  0.2253427E+01  0.9014927E-04 -0.8925872E-01  0.5443171E+02 -0.2232008E+01  0.1636220E-04 -0.2186784E-01  0.2637563E+02  0.2685430E+01  0.4525841E-04  0.1482511E+01
  0.1320000E+02  0.8243680E+02  0.2262063E+01  0.2742159E-05 -0.5898236E+00  0.5135162E+02 -0.2272335E+01  0.1026225E-04 -0.5341421E-01  0.2431817E+02  0.2736433E+01  0.1702017E-04  0.2264475E+01
  0.1330000E+02  0.6290929E+02  0.2269967E+01  0.7795230E-04  0.2739419E+01  0.4822246E+02 -0.2315694E+01  0.7757973E-05 -0.1656005E+00  0.2218165E+02  0.2793641E+01  0.3537657E-05 -0.1900351E+01
  0.1340000E+02  0.4404149E+02  0.2276110E+01  0.9002631E-04 -0.1286025E+00  0.4507485E+02 -0.2362455E+01  0.5754716E-05  0.2673250E-01  0.2000451E+02  0.2858288E+01  0.3412457E-04  0.1524402E+01
  0.1350000E+02  0.2604882E+02  0.2278456E+01  0.1221355E-04 -0.1983143E+01  0.4193694E+02 -0.2413028E+01  0.7025664E-05 -0.1936242E+00  0.1783410E+02  0.2932269E+01  0.1831120E-04  0.5856296E+00
  0.1360000E+02  0.9122828E+01  0.2265335E+01  0.3392176E-04  0.3292938E+00  0.3883181E+02 -0.2467943E+01  0.4557618E-05 -0.1834215E+00  0.1572408E+02  0.3018401E+01  0.2306737E-04  0.7669516E+00
  0.1370000E+02  0.6598264E+01 -0.8134860E+00  0.2219891E-04  0.2975783E+00  0.3577862E+02 -0.2527852E+01  0.5319340E-05  0.2155936E+01  0.1373438E+02  0.3120682E+01  0.2504423E-05 -0.2949797E+01
  0.1380000E+02  0.2099207E+02 -0.8403238E+00  0.1472289E-04  0.2530113E+01  0.3279603E+02 -0.2593664E+01  0.3929124E-05  0.3122648E+01  0.1193144E+02 -0.3039001E+01  0.1312690E-04  0.2157322E+01
  0.1390000E+02  0.3401750E+02 -0.8504490E+00  0.6623264E-04 -0.3082186E+01  0.2990063E+02 -0.2666672E+01  0.1099415E-05  0.2949808E+01  0.1038754E+02 -0.2888909E+01  0.1658562E-04  0.1117290E+01
  0.1400000E+02  0.4566351E+02 -0.8618223E+00  0.1571404E-04  0.1178579E+01  0.2711261E+02 -0.2748627E+01  0.7874333E-05 -0.3102987E+01  0.9179559E+01 -0.2709196E+01  0.2634805E-04 -0.1350130E+01
  0.1410000E+02  0.5595633E+02 -0.8762712E+00  0.2304718E-04 -0.3133494E+01  0.2445758E+02 -0.2842035E+01  0.1717883E-05 -0.6840961E+00  0.8373913E+01 -0.2504158E+01  0.7636031E-05 -0.2096352E+00
  0.1420000E+02  0.6495032E+02 -0.8942761E+00  0.8159649E-05 -0.2949257E+00  0.2197156E+02 -0.2950367E+01  0.7353200E-06 -0.3783860E+00  0.7997840E+01 -0.2289143E+01  0.2458120E-04 -0.2987538E+01
  0.1430000E+02  0.7272085E+02 -0.9160053E+00  0.3285129E-05 -0.2067426E+01  0.1971059E+02 -0.3078066E+01  0.7269427E-06 -0.1341080E+01  0.8016960E+01 -0.2086469E+01  0.2986380E-04 -0.1802840E+01
  0.1440000E+02  0.7935400E+02 -0.9414940E+00  0.1565689E-04  0.2205487E+01  0.1775951E+02  0.3053045E+01  0.1229133E-05 -0.5891988E+00  0.8342346E+01 -0.1914220E+01  0.2370059E-04  0.1730823E+01
  0.1450000E+02  0.8494356E+02 -0.9707109E+00  0.4871840E-05 -0.1931390E+01  0.1624137E+02  0.2873014E+01  0.1645985E-05 -0.2513354E+01  0.8866137E+01 -0.1779364E+01  0.1291067E-04  0.1743992E+01
  0.1460000E+02  0.8958527E+02 -0.1003594E+01  0.1213883E-04 -0.2216992E+00  0.1531203E+02  0.2667349E+01  0.2938130E-05  0.1869380E+01  0.9495312E+01 -0.1680069E+01  0.9381534E-05 -0.2062881E+01
  0.1470000E+02  0.9337162E+02 -0.1040085E+01  0.2724414E-04  0.3046265E+00  0.1511853E+02  0.2449781E+01  0.1931136E-05  0.9670859E+00  0.1016279E+02 -0.1610805E+01  0.2208168E-05 -0.1582433E-01
  0.1480000E+02  0.9639462E+02 -0.1080116E+01  0.7294521E-05 -0.1847824E+01  0.1572015E+02  0.2244634E+01  0.3778233E-05 -0.5137106E-01  0.1082484E+02 -0.1565741E+01  0.9198510E-05  0.1871850E+01
  0.1490000E+02  0.9874166E+02 -0.1123625E+01  0.8748777E-05  0.1492594E-01  0.1702913E+02  0.2075864E+01  0.8337614E-05 -0.3030817E+01  0.1145525E+02 -0.1539947E+01  0.1231360E-04  0.1359335E+01
  0.1500000E+02  0.1004990E+03 -0.1170554E+01  0.4284494E-04  0.1152067E-02  0.1881507E+02  0.1956139E+01  0.2184493E-05  0.2474245E+01  0.1203934E+02 -0.1529547E+01  0.6436610E-05 -0.6689159E+00
  0.1510000E+02  0.1017475E+03 -0.1220845E+01  0.5155295E-04 -0.2956070E+01  0.2075600E+02  0.1885471E+01  0.5981214E-05 -0.5718985E-01  0.1257009E+02 -0.1531683E+01  0.1611337E-04  0.1127514E+01