VARIABLES="Frequency (rad/s)" "|Fx| (N/m)" "|Fy| (N/m)" "|Fz| (N/m)" "|Cx| (N)" "|Cy| (N)" "|Cz| (N)" "ang(Fx) (°)" "ang(Fy) (°)" "ang(Fz) (°)" "ang(Cx) (°)" "ang(Cy) (°)" "ang(Cz) (°)"
Zone t="Corps  1"
Zone t="Excitation force - beta =   0.000 deg",I=   800,F=POINT
 0.1000  0.684907E+01  0.165095E-03  0.329206E+03  0.163456E-04  0.538359E+00  0.289562E-05  -90.00  179.97   -0.00    0.02  -90.00 -173.01
 0.2000  0.143874E+02  0.334300E-03  0.327965E+03  0.285770E-04  0.115474E+01  0.546556E-05  -90.00 -179.85   -0.00 -179.98  -90.00   -9.08
 0.3000  0.211637E+02  0.956731E-03  0.325921E+03  0.528269E-04  0.167648E+01  0.828078E-05  -90.00   -0.02   -0.00 -180.00  -90.00  -13.99
 0.4000  0.282606E+02  0.300868E-03  0.323053E+03  0.981753E-05  0.223104E+01  0.967883E-05  -90.00 -179.90   -0.00 -179.91  -90.00 -167.74
 0.5000  0.353942E+02  0.493850E-03  0.319371E+03  0.345183E-04  0.278191E+01  0.163994E-04  -90.00   -0.07   -0.01  179.98  -90.00   19.08
 0.6000  0.425752E+02  0.898091E-03  0.314879E+03  0.238448E-04  0.332826E+01  0.841257E-05  -90.00    0.02   -0.01 -179.95  -90.00  -31.12
 0.7000  0.498117E+02  0.106513E-02  0.309580E+03  0.112556E-04  0.386887E+01  0.150584E-04  -90.00    0.08   -0.01    0.02  -90.00  -51.20
 0.8000  0.571153E+02  0.179442E-03  0.303478E+03  0.690692E-04  0.440290E+01  0.135938E-04  -90.00  179.29   -0.02    0.07  -90.00 -155.79
 0.9000  0.644996E+02  0.170065E-03  0.296576E+03  0.319008E-04  0.492954E+01  0.710937E-05  -90.00   -0.28   -0.02    0.14  -89.99   34.01
 1.0000  0.719739E+02  0.110899E-02  0.288887E+03  0.625333E-04  0.544749E+01  0.171680E-04  -89.99    0.07   -0.02    0.08  -89.99 -174.84
 1.1000  0.795514E+02  0.151670E-02  0.280409E+03  0.400662E-04  0.595560E+01  0.334494E-04  -89.99   -0.14   -0.03   -0.11  -89.99  -94.59
 1.2000  0.872470E+02  0.872320E-03  0.271155E+03  0.362788E-04  0.645313E+01  0.194267E-04  -89.99 -179.68   -0.04 -179.82  -89.99  117.90
 1.3000  0.950724E+02  0.611013E-04  0.261135E+03  0.786364E-04  0.693829E+01  0.132157E-04  -89.99 -176.41   -0.04    0.08  -89.99   53.31
 1.4000  0.103045E+03  0.349212E-03  0.250358E+03  0.252535E-04  0.741029E+01  0.268760E-04  -89.99    0.59   -0.05 -179.95  -89.99  -80.16
 1.5000  0.111181E+03  0.787870E-04  0.238841E+03  0.139504E-04  0.786747E+01  0.151590E-04  -89.98    0.02   -0.06 -179.46  -89.98  -52.69
 1.6000  0.119497E+03  0.198059E-04  0.226587E+03  0.215831E-04  0.830853E+01  0.134057E-04  -89.98  179.63   -0.07 -179.97  -89.98  -81.85
 1.7000  0.128016E+03  0.856710E-03  0.213623E+03  0.878405E-04  0.873250E+01  0.754948E-05  -89.97  179.85   -0.07  179.90  -89.97 -102.09
 1.8000  0.136746E+03  0.455989E-03  0.199970E+03  0.109735E-03  0.913608E+01  0.953910E-05  -89.97    0.52   -0.08 -179.94  -89.97 -137.91
 1.9000  0.145718E+03  0.956352E-03  0.185636E+03  0.458708E-04  0.951895E+01  0.489054E-05  -89.96 -179.88   -0.09 -179.73  -89.96 -136.03
 2.0000  0.154949E+03  0.197023E-02  0.170655E+03  0.938621E-04  0.987870E+01  0.362536E-04  -89.95    0.12   -0.10  179.96  -89.95  -84.49
 2.1000  0.164456E+03  0.148361E-02  0.155059E+03  0.628728E-04  0.102129E+02  0.225587E-04  -89.95 -179.63   -0.11    0.39  -89.95   91.59
 2.2000  0.174262E+03  0.109394E-04  0.138883E+03  0.109820E-03  0.105189E+02  0.160037E-04  -89.94  175.92   -0.12    0.18  -89.94  149.17
 2.3000  0.184384E+03  0.509062E-03  0.122118E+03  0.578853E-04  0.107943E+02  0.288521E-04  -89.92  179.24   -0.13   -0.31  -89.92   89.04
 2.4000  0.194837E+03  0.162476E-02  0.104852E+03  0.299552E-04  0.110361E+02  0.205105E-04  -89.91 -179.24   -0.14    0.20  -89.91   87.47
 2.5000  0.205632E+03  0.226254E-02  0.871198E+02  0.340348E-04  0.112404E+02  0.436168E-04  -89.89    0.03   -0.15  179.60  -89.89 -112.07
 2.6000  0.216775E+03  0.229790E-03  0.689436E+02  0.176512E-04  0.114032E+02  0.149620E-04  -89.87  172.05   -0.15  179.04  -89.87  -34.63
 2.7000  0.228272E+03  0.288500E-03  0.503746E+02  0.137153E-04  0.115212E+02  0.172191E-04  -89.84    1.37   -0.16 -178.20  -89.84   48.83
 2.8000  0.240112E+03  0.295139E-04  0.314828E+02  0.494228E-04  0.115899E+02  0.178229E-04  -89.81    6.92   -0.16   -0.46  -89.81  -81.38
 2.9000  0.252277E+03  0.111509E-02  0.123369E+02  0.272507E-04  0.116036E+02  0.178486E-04  -89.77 -179.62   -0.11 -179.42  -89.77  125.31
 3.0000  0.264747E+03  0.184042E-02  0.709848E+01  0.270510E-05  0.115572E+02  0.102919E-03  -89.73 -179.57  180.00 -171.82  -89.73  -87.17
 3.1000  0.277486E+03  0.342837E-03  0.266925E+02  0.752085E-04  0.114464E+02  0.553448E-04  -89.68 -177.75  179.92    0.15  -89.68  -88.40
 3.2000  0.290454E+03  0.101769E-03  0.463915E+02  0.896736E-04  0.112668E+02  0.627562E-04  -89.63 -176.28  179.94    0.02  -89.63   88.40
 3.3000  0.303572E+03  0.434386E-03  0.661285E+02  0.260763E-04  0.110092E+02  0.367137E-04  -89.56    0.58  179.94   -0.67  -89.56   82.98
 3.4000  0.316807E+03  0.145738E-02  0.859555E+02  0.977096E-05  0.106713E+02  0.197876E-03  -89.49  179.79 -179.97    2.66  -89.49  -88.14
 3.5000  0.330095E+03  0.327707E-03  0.105749E+03  0.141803E-04  0.102500E+02  0.104052E-03  -89.41   -1.95 -179.91 -179.79  -89.41  -89.70
 3.6000  0.343330E+03  0.227614E-03  0.125434E+03  0.644919E-05  0.973764E+01  0.132812E-03  -89.32 -176.98 -179.83 -177.81  -89.32   87.20
 3.7000  0.356459E+03  0.163331E-02  0.144990E+03  0.472597E-05  0.913254E+01  0.194471E-04  -89.21    0.79 -179.75 -176.15  -89.22  -42.90
 3.8000  0.369403E+03  0.670249E-03  0.164404E+03  0.904120E-04  0.843053E+01  0.995717E-04  -89.10    0.11 -179.64 -179.21  -89.10   87.43
 3.9000  0.382090E+03  0.190068E-04  0.183639E+03  0.499594E-04  0.763080E+01  0.776981E-04  -88.98 -127.31 -179.50 -179.85  -88.98  -89.51
 4.0000  0.394431E+03  0.598841E-03  0.202606E+03  0.411185E-04  0.673179E+01  0.715619E-05  -88.85 -177.69 -179.35  177.94  -88.85  160.19
 4.1000  0.406347E+03  0.785045E-03  0.221261E+03  0.457510E-04  0.573279E+01  0.567794E-04  -88.70    2.56 -179.18    3.27  -88.70  -92.81
 4.2000  0.417764E+03  0.365446E-03  0.239595E+03  0.156952E-04  0.463335E+01  0.528591E-05  -88.55 -179.10 -179.01   -0.17  -88.54   89.64
 4.3000  0.428607E+03  0.164045E-02  0.257540E+03  0.430526E-04  0.343418E+01  0.506899E-04  -88.38 -179.17 -178.77   -2.99  -88.37  -91.18
 4.4000  0.438805E+03  0.153206E-03  0.275074E+03  0.433685E-04  0.214001E+01  0.671469E-04  -88.21  170.57 -178.52    0.73  -88.16   95.63
 4.5000  0.448280E+03  0.705724E-03  0.292101E+03  0.944223E-05  0.754239E+00  0.518970E-04  -88.02   -1.39 -178.24   -1.69  -87.77  -89.98
 4.6000  0.456958E+03  0.274577E-03  0.308583E+03  0.187559E-04  0.719862E+00  0.319964E-04  -87.83  173.11 -177.94    0.08   91.77   94.06
 4.7000  0.464773E+03  0.750750E-04  0.324541E+03  0.129310E-04  0.227794E+01  0.371345E-04  -87.63   40.04 -177.61  177.15   92.17 -112.36
 4.8000  0.471654E+03  0.156204E-03  0.339798E+03  0.154258E-04  0.391463E+01  0.155008E-04  -87.42   28.59 -177.22   20.96   92.43   92.25
 4.9000  0.477547E+03  0.736062E-04  0.354412E+03  0.378708E-04  0.562049E+01  0.217279E-04  -87.20  144.67 -176.80  178.78   92.65  -94.47
 5.0000  0.482386E+03  0.302165E-03  0.368273E+03  0.582345E-05  0.738757E+01  0.373673E-04  -86.98  172.56 -176.33   -7.48   92.86  -87.41
 5.1000  0.486117E+03  0.201650E-03  0.381338E+03  0.109191E-04  0.920629E+01  0.781371E-04  -86.76    0.95 -175.83  151.16   93.08   85.22
 5.2000  0.488691E+03  0.390622E-03  0.393571E+03  0.352745E-04  0.110691E+02  0.176325E-03  -86.53 -176.86 -175.27 -174.99   93.28   84.79
 5.3000  0.490063E+03  0.165950E-03  0.404971E+03  0.186079E-05  0.129683E+02  0.318714E-04  -86.31   17.31 -174.67 -175.50   93.48  -43.05
 5.4000  0.490189E+03  0.329198E-03  0.415306E+03  0.113876E-04  0.148908E+02  0.989505E-04  -86.09  -24.07 -174.00  142.10   93.68   84.45
 5.5000  0.489055E+03  0.179159E-03  0.424716E+03  0.509501E-05  0.168258E+02  0.256626E-04  -85.88  167.59 -173.28   86.46   93.87  101.67
 5.6000  0.486629E+03  0.219498E-03  0.433040E+03  0.305763E-05  0.187602E+02  0.575565E-04  -85.68  147.25 -172.48  -94.62   94.04   98.58
 5.7000  0.482913E+03  0.105412E-02  0.440260E+03  0.462000E-05  0.206846E+02  0.388571E-04  -85.49   -0.86 -171.62  167.99   94.20   95.01
 5.8000  0.477883E+03  0.965131E-03  0.446275E+03  0.142434E-04  0.225868E+02  0.763734E-04  -85.31  164.33 -170.69  -92.97   94.34  -94.33
 5.9000  0.471562E+03  0.134816E-03  0.451094E+03  0.804024E-05  0.244592E+02  0.474967E-04  -85.15 -105.05 -169.67  158.34   94.45   75.00
 6.0000  0.463957E+03  0.776857E-04  0.454593E+03  0.427022E-05  0.262916E+02  0.180618E-03  -85.02  162.51 -168.57 -177.64   94.54   86.08
 6.1000  0.455094E+03  0.460360E-03  0.456721E+03  0.236423E-04  0.280734E+02  0.856991E-04  -84.91    0.80 -167.37  -18.97   94.61   90.01
 6.2000  0.445017E+03  0.434199E-03  0.457538E+03  0.106287E-04  0.297963E+02  0.202492E-03  -84.82   32.38 -166.07  172.18   94.64   91.57
 6.3000  0.433752E+03  0.731989E-03  0.456875E+03  0.681063E-05  0.314499E+02  0.126323E-03  -84.77  158.13 -164.67  160.44   94.63  -96.39
 6.4000  0.421337E+03  0.118740E-03  0.454565E+03  0.201491E-04  0.330267E+02  0.133681E-03  -84.75  -36.05 -163.17    1.18   94.59 -100.08
 6.5000  0.407850E+03  0.460696E-03  0.450830E+03  0.973614E-05  0.345263E+02  0.234446E-04  -84.78 -142.57 -161.55  -32.42   94.51   13.06
 6.6000  0.393326E+03  0.395555E-03  0.445472E+03  0.182408E-04  0.359429E+02  0.266265E-04  -84.84 -103.71 -159.82  160.46   94.39  -97.85
 6.7000  0.377827E+03  0.126065E-03  0.438513E+03  0.116711E-04  0.372757E+02  0.981056E-04  -84.94  -67.65 -157.97 -169.39   94.23  -87.40
 6.8000  0.361410E+03  0.135370E-03  0.429898E+03  0.966703E-05  0.385207E+02  0.196912E-04  -85.10   -4.30 -155.99  -72.05   94.02 -126.10
 6.9000  0.344147E+03  0.362372E-03  0.419730E+03  0.525447E-05  0.396779E+02  0.278104E-04  -85.31  -75.78 -153.89   22.27   93.77  -53.16
 7.0000  0.326095E+03  0.107056E-03  0.408066E+03  0.754255E-05  0.407475E+02  0.914036E-04  -85.57  167.69 -151.68  174.90   93.47  -80.26
 7.1000  0.307308E+03  0.158970E-03  0.394890E+03  0.730129E-05  0.417299E+02  0.278165E-04  -85.89  -67.98 -149.34    7.31   93.13 -100.40
 7.2000  0.287846E+03  0.133337E-03  0.380375E+03  0.625766E-05  0.426297E+02  0.226849E-04  -86.29   56.09 -146.89    8.38   92.74  118.86
 7.3000  0.267764E+03  0.922991E-04  0.364734E+03  0.118097E-04  0.434524E+02  0.963377E-04  -86.76   13.47 -144.33   -8.40   92.32   90.49
 7.4000  0.247110E+03  0.103979E-03  0.348086E+03  0.722981E-05  0.442035E+02  0.950992E-04  -87.32  135.84 -141.66  -31.31   91.85  -93.53
 7.5000  0.225925E+03  0.434006E-03  0.330630E+03  0.129950E-04  0.448889E+02  0.136814E-04  -87.98  -14.80 -138.88  -13.21   91.36 -152.07
 7.6000  0.204257E+03  0.299644E-03  0.312650E+03  0.869070E-05  0.455145E+02  0.379795E-04  -88.78   61.84 -136.00  168.69   90.83 -105.87
 7.7000  0.182143E+03  0.440217E-03  0.294369E+03  0.121993E-04  0.460866E+02  0.526193E-04  -89.76  155.26 -133.02  -16.91   90.27   89.25
 7.8000  0.159624E+03  0.287451E-03  0.276046E+03  0.141179E-04  0.466118E+02  0.128605E-04  -90.98    0.43 -129.94 -177.47   89.70 -129.36
 7.9000  0.136742E+03  0.953696E-04  0.257950E+03  0.450475E-05  0.470975E+02  0.719511E-04  -92.56   75.57 -126.76  100.50   89.11  -96.13
 8.0000  0.113557E+03  0.500781E-04  0.240284E+03  0.976671E-05  0.475514E+02  0.862802E-05  -94.72   47.49 -123.48  -39.70   88.52    5.29
 8.1000  0.901689E+02  0.429188E-04  0.223274E+03  0.995926E-05  0.479826E+02  0.129870E-03  -97.93  179.07 -120.09    7.30   87.94   86.95
 8.2000  0.668117E+02  0.148235E-03  0.207118E+03  0.758517E-05  0.483995E+02  0.520476E-04 -103.30  -14.18 -116.59   25.59   87.37  -87.11
 8.3000  0.442145E+02  0.924074E-04  0.191955E+03  0.332746E-05  0.488105E+02  0.123719E-03 -114.24 -171.50 -112.99  -93.98   86.82  -96.05
 8.4000  0.257686E+02  0.159193E-04  0.177914E+03  0.699143E-05  0.492226E+02  0.565206E-04 -143.86 -154.58 -109.27  174.72   86.32 -100.63
 8.5000  0.255547E+02  0.303976E-03  0.165100E+03  0.262117E-05  0.496424E+02  0.360255E-04  156.13   13.35 -105.46 -149.17   85.87  136.79
 8.6000  0.445668E+02  0.117158E-03  0.153522E+03  0.113403E-04  0.500765E+02  0.696246E-04  125.50  174.52 -101.56   -6.28   85.49  -97.77
 8.7000  0.687699E+02  0.237617E-04  0.143218E+03  0.122837E-04  0.505299E+02  0.301042E-04  114.40   34.23  -97.62 -169.89   85.19 -167.57
 8.8000  0.945963E+02  0.125057E-03  0.134161E+03  0.180399E-04  0.510074E+02  0.707121E-04  109.16  176.86  -93.68    0.74   84.99  107.58
 8.9000  0.121283E+03  0.402404E-04  0.126295E+03  0.174009E-04  0.515123E+02  0.247104E-04  106.24 -104.94  -89.79   -0.16   84.90  -52.91
 9.0000  0.148556E+03  0.291139E-03  0.119524E+03  0.140960E-04  0.520474E+02  0.137763E-03  104.47  178.58  -86.00 -178.95   84.95   99.50
 9.1000  0.176287E+03  0.674966E-04  0.113759E+03  0.501443E-05  0.526128E+02  0.400200E-04  103.39 -172.27  -82.40 -132.82   85.14   60.54
 9.2000  0.204363E+03  0.328727E-04  0.108878E+03  0.212481E-04  0.532069E+02  0.185257E-04  102.79 -119.48  -79.03   -5.38   85.51 -168.46
 9.3000  0.232669E+03  0.170096E-03  0.104759E+03  0.609202E-05  0.538251E+02  0.101812E-03  102.53   22.19  -75.98 -164.15   86.06  -93.97
 9.4000  0.261032E+03  0.347794E-03  0.101267E+03  0.272605E-04  0.544598E+02  0.259477E-04  102.57 -174.67  -73.26 -169.42   86.81   35.47
 9.5000  0.289186E+03  0.112303E-03  0.982579E+02  0.875966E-05  0.550859E+02  0.194962E-04  102.87   -4.03  -70.93 -174.46   87.78  -83.77
 9.6000  0.317039E+03  0.737404E-04  0.956871E+02  0.226509E-05  0.557142E+02  0.306976E-04  103.40  176.00  -69.01  -96.16   88.96  -80.03
 9.7000  0.344229E+03  0.859661E-04  0.934319E+02  0.102248E-04  0.563158E+02  0.412688E-04  104.14   39.20  -67.52   14.86   90.38  -84.43
 9.8000  0.370394E+03  0.168208E-03  0.914173E+02  0.101845E-04  0.568683E+02  0.215771E-04  105.08 -159.83  -66.45   -4.99   92.02  -80.06
 9.9000  0.395128E+03  0.651071E-04  0.895852E+02  0.805373E-05  0.573479E+02  0.387604E-04  106.21   17.45  -65.81 -163.65   93.89   89.46
10.0000  0.417988E+03  0.971519E-04  0.878912E+02  0.905782E-05  0.577291E+02  0.453655E-04  107.50  143.74  -65.58   -1.68   95.96  -89.40
10.1000  0.438509E+03  0.174803E-03  0.863047E+02  0.309278E-04  0.579863E+02  0.318539E-04  108.93 -167.15  -65.75   -4.04   98.23   85.03
10.2000  0.456250E+03  0.102192E-03  0.848101E+02  0.240587E-04  0.580966E+02  0.558002E-05  110.47 -141.74  -66.30   -5.88  100.66  -76.51
10.3000  0.470826E+03  0.877484E-04  0.834004E+02  0.361639E-05  0.580428E+02  0.279125E-04  112.10 -175.29  -67.21   41.24  103.21  -79.28
10.4000  0.481937E+03  0.229459E-04  0.820770E+02  0.992479E-05  0.578138E+02  0.248889E-04  113.76  172.12  -68.46 -176.75  105.85   93.20
10.5000  0.489398E+03  0.109840E-03  0.808480E+02  0.179778E-04  0.574062E+02  0.117679E-04  115.43    0.18  -70.03 -176.94  108.53  -99.87
10.6000  0.493166E+03  0.225095E-03  0.797256E+02  0.116357E-04  0.568264E+02  0.375754E-04  117.07    5.06  -71.89 -176.78  111.21  -97.93
10.7000  0.493336E+03  0.212936E-03  0.787246E+02  0.203047E-04  0.560885E+02  0.202954E-04  118.64   -2.90  -74.00  178.62  113.85 -116.42
10.8000  0.490131E+03  0.306645E-03  0.778590E+02  0.198761E-05  0.552140E+02  0.919909E-05  120.11   -1.97  -76.34  111.10  116.41 -108.36
10.9000  0.483880E+03  0.928138E-04  0.771413E+02  0.796354E-05  0.542301E+02  0.237920E-05  121.46   13.98  -78.87  -15.34  118.86  -14.57
11.0000  0.474949E+03  0.135382E-03  0.765781E+02  0.636245E-05  0.531620E+02  0.122154E-04  122.65  179.30  -81.54  169.31  121.16  -51.78
11.1000  0.463751E+03  0.115498E-03  0.761712E+02  0.338441E-04  0.520365E+02  0.497314E-05  123.70  179.43  -84.31  175.78  123.31 -145.38
11.2000  0.450696E+03  0.173505E-03  0.759139E+02  0.127592E-04  0.508779E+02  0.105107E-04  124.58  176.78  -87.14 -160.60  125.30   75.34
11.3000  0.436161E+03  0.157402E-03  0.757871E+02  0.194782E-04  0.497054E+02  0.131056E-04  125.30    1.92  -89.98  174.39  127.12   45.86
11.4000  0.420487E+03  0.728961E-04  0.757659E+02  0.949740E-05  0.485345E+02  0.587873E-05  125.88 -137.43  -92.78 -110.09  128.77 -179.68
11.5000  0.403968E+03  0.540822E-04  0.758148E+02  0.170148E-04  0.473771E+02  0.647613E-05  126.31  -79.45  -95.51 -164.98  130.27  -53.88
11.6000  0.386842E+03  0.142892E-03  0.758911E+02  0.110468E-04  0.462399E+02  0.880658E-05  126.61  172.80  -98.15 -121.40  131.63  -76.61
11.7000  0.369289E+03  0.864113E-04  0.759448E+02  0.851345E-05  0.451250E+02  0.184748E-04  126.81 -155.77 -100.66   50.02  132.88 -115.40
11.8000  0.351441E+03  0.217377E-03  0.759230E+02  0.255310E-04  0.440306E+02  0.613748E-05  126.91   -5.12 -103.04   14.74  134.03 -115.67
11.9000  0.333388E+03  0.130954E-03  0.757713E+02  0.202151E-04  0.429518E+02  0.169258E-04  126.95    0.30 -105.28    9.87  135.11 -103.06
12.0000  0.315182E+03  0.178688E-03  0.754391E+02  0.132879E-04  0.418808E+02  0.507094E-05  126.95 -170.91 -107.39    7.63  136.15  -69.91
12.1000  0.296842E+03  0.130281E-03  0.748803E+02  0.134185E-04  0.408067E+02  0.812280E-05  126.92  171.64 -109.37   -4.90  137.18  -73.98
12.2000  0.278368E+03  0.358815E-04  0.740584E+02  0.107902E-04  0.397170E+02  0.335257E-04  126.89  -29.71 -111.24    2.01  138.23   86.67
12.3000  0.259728E+03  0.313975E-04  0.729470E+02  0.258535E-04  0.385945E+02  0.456125E-04  126.89  132.68 -113.04    4.41  139.34  -91.44
12.4000  0.240885E+03  0.105317E-03  0.715311E+02  0.222031E-04  0.374206E+02  0.240422E-04  126.92 -167.75 -114.78    4.88  140.53   93.84
12.5000  0.221802E+03  0.129893E-04  0.698134E+02  0.151902E-05  0.361773E+02  0.273712E-04  127.02  174.00 -116.50  138.29  141.85  100.40
12.6000  0.202449E+03  0.391300E-04  0.678056E+02  0.316666E-05  0.348448E+02  0.420067E-04  127.19 -169.23 -118.22  -27.90  143.32  -97.84
12.7000  0.182812E+03  0.882072E-04  0.655277E+02  0.602631E-05  0.334046E+02  0.352493E-04  127.43   -6.88 -119.98   -3.70  144.97   90.74
12.8000  0.162911E+03  0.802169E-04  0.630140E+02  0.410596E-05  0.318427E+02  0.618034E-05  127.76  176.10 -121.80  162.76  146.83  -11.36
12.9000  0.142801E+03  0.441440E-04  0.603009E+02  0.128707E-04  0.301504E+02  0.230229E-04  128.16  152.37 -123.71   -5.70  148.91 -130.38
13.0000  0.122581E+03  0.155233E-03  0.574275E+02  0.236737E-05  0.283257E+02  0.206243E-04  128.62   -4.05 -125.73 -172.44  151.25  117.82
13.1000  0.102398E+03  0.901493E-04  0.544317E+02  0.163622E-04  0.263756E+02  0.452584E-04  129.11   -5.11 -127.88   -1.25  153.86   84.94
13.2000  0.824368E+02  0.274216E-05  0.513516E+02  0.102622E-04  0.243182E+02  0.170202E-04  129.61  -33.79 -130.20   -3.06  156.79  129.74
13.3000  0.629093E+02  0.779523E-04  0.482225E+02  0.775797E-05  0.221817E+02  0.353766E-05  130.06  156.96 -132.68   -9.49  160.06 -108.88
13.4000  0.440415E+02  0.900263E-04  0.450748E+02  0.575472E-05  0.200045E+02  0.341246E-04  130.41   -7.37 -135.36    1.53  163.77   87.34
13.5000  0.260488E+02  0.122135E-04  0.419369E+02  0.702566E-05  0.178341E+02  0.183112E-04  130.55 -113.63 -138.26  -11.09  168.01   33.55
13.6000  0.912283E+01  0.339218E-04  0.388318E+02  0.455762E-05  0.157241E+02  0.230674E-04  129.79   18.87 -141.40  -10.51  172.94   43.94
13.7000  0.659826E+01  0.221989E-04  0.357786E+02  0.531934E-05  0.137344E+02  0.250442E-05  -46.61   17.05 -144.84  123.53  178.80 -169.01
13.8000  0.209921E+02  0.147229E-04  0.327960E+02  0.392912E-05  0.119314E+02  0.131269E-04  -48.15  144.96 -148.61  178.91 -174.12  123.61
13.9000  0.340175E+02  0.662326E-04  0.299006E+02  0.109942E-05  0.103875E+02  0.165856E-04  -48.73 -176.60 -152.79  169.01 -165.52   64.02
14.0000  0.456635E+02  0.157140E-04  0.271126E+02  0.787433E-05  0.917956E+01  0.263481E-04  -49.38   67.53 -157.48 -177.79 -155.23  -77.36
14.1000  0.559563E+02  0.230472E-04  0.244576E+02  0.171788E-05  0.837391E+01  0.763603E-05  -50.21 -179.54 -162.84  -39.20 -143.48  -12.01
14.2000  0.649503E+02  0.815965E-05  0.219716E+02  0.735320E-06  0.799784E+01  0.245812E-04  -51.24  -16.90 -169.04  -21.68 -131.16 -171.17
14.3000  0.727208E+02  0.328513E-05  0.197106E+02  0.726943E-06  0.801696E+01  0.298638E-04  -52.48 -118.45 -176.36  -76.84 -119.55 -103.30
14.4000  0.793540E+02  0.156569E-04  0.177595E+02  0.122913E-05  0.834235E+01  0.237006E-04  -53.94  126.37  174.93  -33.76 -109.68   99.17
14.5000  0.849436E+02  0.487184E-05  0.162414E+02  0.164599E-05  0.886614E+01  0.129107E-04  -55.62 -110.66  164.61 -144.00 -101.95   99.92
14.6000  0.895853E+02  0.121388E-04  0.153120E+02  0.293813E-05  0.949531E+01  0.938153E-05  -57.50  -12.70  152.83  107.11  -96.26 -118.19
14.7000  0.933716E+02  0.272441E-04  0.151185E+02  0.193114E-05  0.101628E+02  0.220817E-05  -59.59   17.45  140.36   55.41  -92.29   -0.91
14.8000  0.963946E+02  0.729452E-05  0.157201E+02  0.377823E-05  0.108248E+02  0.919851E-05  -61.89 -105.87  128.61   -2.94  -89.71  107.25
14.9000  0.987417E+02  0.874878E-05  0.170291E+02  0.833761E-05  0.114552E+02  0.123136E-04  -64.38    0.86  118.94 -173.65  -88.23   77.88
15.0000  0.100499E+03  0.428449E-04  0.188151E+02  0.218449E-05  0.120393E+02  0.643661E-05  -67.07    0.07  112.08  141.76  -87.64  -38.33
15.1000  0.101748E+03  0.515529E-04  0.207560E+02  0.598121E-05  0.125701E+02  0.161134E-04  -69.95 -169.37  108.03   -3.28  -87.76   64.60
15.2000  0.102566E+03  0.183849E-04  0.224895E+02  0.728232E-05  0.130456E+02  0.488744E-05  -73.02   53.64  106.35   -4.99  -88.47   80.18
15.3000  0.103028E+03  0.390165E-04  0.236816E+02  0.606512E-05  0.134670E+02  0.477018E-06  -76.28  127.97  106.37   16.64  -89.69   19.01
15.4000  0.103206E+03  0.403712E-04  0.241251E+02  0.666830E-05  0.138380E+02  0.406442E-05  -79.71  -64.50  107.34  -22.38  -91.32  -83.19
15.5000  0.103171E+03  0.374375E-04  0.237930E+02  0.397208E-05  0.141637E+02  0.397030E-06  -83.32  -44.09  108.58  -63.21  -93.32   -9.77
15.6000  0.102991E+03  0.151663E-04  0.228166E+02  0.435285E-05  0.144497E+02  0.109615E-04  -87.08   40.19  109.57  172.34  -95.62   67.37
15.7000  0.102728E+03  0.281866E-04  0.214104E+02  0.748201E-05  0.147023E+02  0.418187E-05  -91.00  165.42  110.00  -78.16  -98.20   98.30
15.8000  0.102442E+03  0.189642E-04  0.197778E+02  0.219004E-05  0.149283E+02  0.513806E-05  -95.04 -132.09  109.76   26.76 -101.00   89.87
15.9000  0.102187E+03  0.290170E-04  0.180658E+02  0.972522E-06  0.151339E+02  0.398429E-05  -99.18  -49.28  108.84  -49.16 -103.98 -138.53
16.0000  0.102007E+03  0.224384E-04  0.163714E+02  0.595303E-05  0.153245E+02  0.736957E-05 -103.39 -152.36  107.28 -174.13 -107.12  -77.14
16.1000  0.101937E+03  0.378346E-04  0.147565E+02  0.137484E-05  0.155052E+02  0.243954E-05 -107.63  112.94  105.16 -118.77 -110.35   49.81
16.2000  0.101994E+03  0.556612E-04  0.132449E+02  0.347287E-05  0.156790E+02  0.524431E-06 -111.85  144.57  102.56   32.60 -113.63   89.83
16.3000  0.102181E+03  0.439535E-04  0.118473E+02  0.105740E-05  0.158471E+02  0.243560E-05 -116.01  124.70   99.53  154.92 -116.93    5.00
16.4000  0.102480E+03  0.653286E-04  0.105609E+02  0.207807E-05  0.160081E+02  0.193227E-05 -120.05   28.70   96.12  -67.76 -120.18  -33.47
16.5000  0.102852E+03  0.183581E-04  0.938021E+01  0.157615E-06  0.161582E+02  0.192220E-05 -123.92  170.86   92.36  -41.43 -123.34  112.38
16.6000  0.103233E+03  0.269568E-04  0.829847E+01  0.924550E-06  0.162903E+02  0.228241E-05 -127.56  -65.54   88.26   83.41 -126.35 -148.81
16.7000  0.103536E+03  0.115674E-04  0.730858E+01  0.216218E-05  0.163939E+02  0.381576E-05 -130.93   73.55   83.80  160.39 -129.17   70.01
16.8000  0.103652E+03  0.460071E-05  0.640260E+01  0.291354E-05  0.164557E+02  0.270796E-05 -133.97 -160.13   78.94  -75.24 -131.74  113.11
16.9000  0.103457E+03  0.325315E-04  0.557692E+01  0.204620E-05  0.164590E+02  0.149444E-05 -136.65   -6.15   73.63  -20.19 -134.03   83.86
17.0000  0.102810E+03  0.226160E-04  0.482871E+01  0.464096E-06  0.163849E+02  0.479729E-05 -138.93 -159.67   67.77   29.05 -135.97  106.97
17.1000  0.101562E+03  0.989803E-05  0.415444E+01  0.601131E-05  0.162124E+02  0.553920E-06 -140.77  -12.85   61.23  -10.02 -137.54   -2.19
17.2000  0.995601E+02  0.265475E-04  0.355289E+01  0.169760E-05  0.159196E+02  0.359169E-05 -142.13   -7.54   53.79  -23.57 -138.66   93.17
17.3000  0.966513E+02  0.325334E-05  0.302626E+01  0.928966E-06  0.154836E+02  0.870292E-05 -142.95  103.16   45.21  -43.03 -139.28   95.91
17.4000  0.926843E+02  0.169017E-04  0.257993E+01  0.835471E-06  0.148813E+02  0.603072E-05 -143.16  172.49   35.16 -173.42 -139.30   90.61
17.5000  0.875103E+02  0.226417E-04  0.222265E+01  0.107784E-05  0.140901E+02  0.121513E-04 -142.62   -8.04   23.42   -6.65 -138.57   97.11
17.6000  0.809862E+02  0.121530E-04  0.196008E+01  0.154824E-05  0.130873E+02  0.102508E-04 -141.15 -171.39   10.13 -174.30 -136.87  -93.01
17.7000  0.729892E+02  0.285159E-05  0.179014E+01  0.715668E-06  0.118539E+02  0.640365E-05 -138.43  137.70   -4.12  -61.74 -133.88  -82.49
17.8000  0.634579E+02  0.132978E-04  0.170238E+01  0.141619E-05  0.103832E+02  0.169043E-05 -133.90  159.56  -18.34   -0.26 -128.99  104.27
17.9000  0.525060E+02  0.219077E-04  0.167229E+01  0.244646E-05  0.870081E+01  0.482685E-05 -126.47 -142.57  -31.50  -10.80 -121.10  133.34
18.0000  0.407430E+02  0.136042E-04  0.166610E+01  0.760815E-06  0.691785E+01  0.241301E-05 -113.73   -0.47  -43.04   47.19 -107.95  154.43
18.1000  0.302333E+02  0.116992E-04  0.164998E+01  0.147892E-05  0.536945E+01  0.202027E-05  -90.21  178.92  -53.16  110.28  -85.17 -154.92
18.2000  0.263568E+02  0.160201E-04  0.158889E+01  0.196353E-05  0.478895E+01  0.827737E-05  -50.99 -156.27  -62.70  120.10  -50.32   89.94
18.3000  0.332020E+02  0.723661E-05  0.143504E+01  0.156990E-05  0.563925E+01  0.516741E-05  -14.08  -42.58  -74.61 -163.21  -17.08    8.03
18.4000  0.456997E+02  0.850265E-05  0.128844E+01  0.185786E-05  0.716736E+01  0.212596E-05    7.39 -129.78 -104.63  -27.61    1.96    5.04
18.5000  0.602618E+02  0.470794E-05  0.291346E+01  0.284399E-06  0.102006E+02  0.397529E-05   19.38  119.24 -123.06  -49.48    7.08   90.45
18.6000  0.731054E+02  0.360461E-05  0.319947E+01  0.238129E-05  0.133831E+02  0.403346E-05   29.43    9.38  -96.68   91.57   24.10  -87.23
18.7000  0.822193E+02  0.184811E-05  0.278451E+01  0.146702E-05  0.147247E+02  0.187793E-05   35.69   -8.68  -91.99  155.83   33.17  -62.14
18.8000  0.889495E+02  0.199687E-05  0.251746E+01  0.524026E-06  0.157167E+02  0.170595E-05   39.68  -16.78  -92.86   26.16   38.22   84.49
18.9000  0.935357E+02  0.436534E-05  0.231518E+01  0.119166E-06  0.164105E+02  0.379012E-05   42.08  131.49  -95.11  125.96   41.18   81.30
19.0000  0.963441E+02  0.757370E-05  0.213721E+01  0.138226E-06  0.168410E+02  0.106047E-05   43.23  114.86  -97.84 -170.60   42.68  -15.30
19.1000  0.977553E+02  0.505982E-05  0.196815E+01  0.610147E-06  0.170570E+02  0.170955E-05   43.37  -15.20 -100.79  142.34   43.06 -179.30
19.2000  0.980970E+02  0.423607E-05  0.180385E+01  0.301158E-06  0.171053E+02  0.681076E-06   42.68 -172.97 -103.90  176.16   42.55    4.17
19.3000  0.976252E+02  0.418337E-05  0.164118E+01  0.436293E-06  0.170238E+02  0.663699E-06   41.32  -61.64 -107.15  154.80   41.32 -156.31
19.4000  0.965300E+02  0.355068E-05  0.147870E+01  0.100311E-05  0.168411E+02  0.286516E-05   39.39  150.99 -110.56 -137.08   39.50  179.44
19.5000  0.949526E+02  0.105280E-05  0.131832E+01  0.277372E-06  0.165792E+02  0.143515E-05   37.00  129.53 -114.18 -143.43   37.18   22.30
19.6000  0.929973E+02  0.158826E-05  0.116122E+01  0.848013E-06  0.162545E+02  0.777574E-06   34.20   81.60 -118.08  166.01   34.45  135.35
19.7000  0.907404E+02  0.452487E-05  0.100771E+01  0.128199E-06  0.158792E+02  0.102714E-05   31.06   -4.20 -122.42   62.94   31.36 -164.11
19.8000  0.882411E+02  0.822660E-06  0.859505E+00  0.224020E-06  0.154626E+02  0.437672E-05   27.63   85.33 -127.37  -69.11   27.96 -176.63
19.9000  0.855402E+02  0.309222E-06  0.718050E+00  0.320816E-06  0.150113E+02  0.405714E-05   23.93  -75.24 -133.24  -49.74   24.28  -46.57
20.0000  0.826716E+02  0.216632E-05  0.585480E+00  0.230734E-06  0.145312E+02  0.187352E-05   19.99  -22.09 -140.61 -128.52   20.36  146.33
20.1000  0.796623E+02  0.159763E-05  0.465222E+00  0.203880E-06  0.140264E+02  0.125478E-05   15.83   -3.60 -150.61  -11.52   16.22   17.08
20.2000  0.765334E+02  0.344988E-06  0.364541E+00  0.112240E-06  0.135001E+02  0.146693E-05   11.47  -57.89 -165.29   64.18   11.88  109.08
20.3000  0.733008E+02  0.198731E-06  0.299456E+00  0.139310E-06  0.129552E+02  0.166836E-05    6.93   -2.39  172.97 -171.41    7.34  -83.95
20.4000  0.699778E+02  0.588812E-06  0.292137E+00  0.400620E-07  0.123930E+02  0.170823E-05    2.20    4.13  146.53  -65.60    2.63 -113.28
20.5000  0.665735E+02  0.377718E-05  0.345136E+00  0.285363E-06  0.118151E+02  0.561209E-06   -2.72    7.48  125.23 -124.90   -2.27  -67.11
20.6000  0.630929E+02  0.649537E-06  0.433164E+00  0.431580E-06  0.112221E+02  0.123731E-05   -7.80   25.48  113.51 -153.20   -7.34  105.13
20.7000  0.595403E+02  0.286844E-05  0.526542E+00  0.197886E-06  0.106147E+02  0.211726E-05  -13.08 -173.23  109.08   43.55  -12.60  -74.22
20.8000  0.559192E+02  0.304550E-05  0.601954E+00  0.164005E-06  0.999329E+01  0.909799E-06  -18.57    8.54  109.03  -59.31  -18.06  -86.72
20.9000  0.522337E+02  0.175146E-05  0.645945E+00  0.308664E-06  0.935809E+01  0.354144E-06  -24.29  175.46  111.13   72.66  -23.74  105.72
21.0000  0.484889E+02  0.591646E-05  0.658628E+00  0.315346E-06  0.870962E+01  0.480411E-06  -30.27   -7.35  113.82 -176.98  -29.68   87.90
21.1000  0.446926E+02  0.153728E-05  0.650153E+00  0.931027E-06  0.804912E+01  0.484552E-06  -36.59  148.36  116.35    0.73  -35.94   93.93
21.2000  0.408565E+02  0.625761E-05  0.632001E+00  0.249337E-06  0.737895E+01  0.196886E-05  -43.32 -170.88  118.52   68.81  -42.61  -83.12