VARIABLES="w (rad/s)"
"abs(F   1   1)" "angle(F   1   1)"
"abs(F   1   2)" "angle(F   1   2)"
"abs(F   1   3)" "angle(F   1   3)"
"abs(F   1   4)" "angle(F   1   4)"
"abs(F   1   5)" "angle(F   1   5)"
"abs(F   1   6)" "angle(F   1   6)"
Zone t="FKforce - beta =   0.000",I=   800,F=POINT
  0.1000000E+00  0.5664067E+01 -0.1570872E+01  0.1651050E-03  0.3140505E+01  0.3293658E+03 -0.1445457E-09  0.1634607E-04  0.3409864E-03  0.4825508E+00 -0.1570859E+01  0.2892895E-05 -0.3027424E+01
  0.2000000E+00  0.1133453E+02 -0.1570798E+01  0.3342637E-03 -0.3139294E+01  0.3286153E+03 -0.5969396E-09  0.2857628E-04 -0.3141221E+01  0.9646935E+00 -0.1570813E+01  0.5494457E-05 -0.1886129E+00
  0.3000000E+00  0.1701780E+02 -0.1570799E+01  0.9567738E-03 -0.4824408E-04  0.3273658E+03  0.6337635E-08  0.5283694E-04  0.3141558E+01  0.1446019E+01 -0.1570808E+01  0.8321652E-05 -0.2630257E+00
  0.4000000E+00  0.2272045E+02 -0.1570800E+01  0.3008843E-03 -0.3141000E+01  0.3256172E+03  0.3999129E-08  0.9806370E-05 -0.3140256E+01  0.1926123E+01 -0.1570800E+01  0.9727774E-05 -0.2904942E+01
  0.5000000E+00  0.2844918E+02 -0.1570794E+01  0.4938845E-03 -0.1247397E-02  0.3233704E+03  0.5831221E-08  0.3450393E-04  0.3141315E+01  0.2404583E+01 -0.1570796E+01  0.1628051E-04  0.3108999E+00
  0.6000000E+00  0.3421104E+02 -0.1570789E+01  0.8977653E-03  0.5192081E-03  0.3206278E+03 -0.1148519E-07  0.2386015E-04 -0.3140622E+01  0.2880998E+01 -0.1570783E+01  0.7990626E-05 -0.4480449E+00
  0.7000000E+00  0.4001307E+02 -0.1570791E+01  0.1065136E-02  0.1197559E-02  0.3173922E+03 -0.5676052E-08  0.1130331E-04 -0.7979012E-03  0.3354938E+01 -0.1570805E+01  0.1469307E-04 -0.8739036E+00
  0.8000000E+00  0.4586304E+02 -0.1570799E+01  0.1794124E-03  0.3136370E+01  0.3136635E+03  0.1124576E-09  0.6904728E-04  0.1272228E-02  0.3825981E+01 -0.1570792E+01  0.1347653E-04 -0.2740522E+01
  0.9000000E+00  0.5176895E+02 -0.1570796E+01  0.1699962E-03 -0.6663263E-02  0.3094473E+03 -0.9502442E-08  0.3202751E-04  0.2972849E-02  0.4293703E+01 -0.1570786E+01  0.7000192E-05  0.5687817E+00
  0.1000000E+01  0.5773915E+02 -0.1570792E+01  0.1109243E-02 -0.3979715E-03  0.3047463E+03 -0.5008259E-08  0.6248752E-04  0.1378356E-02  0.4757639E+01 -0.1570787E+01  0.1709811E-04 -0.3088406E+01
  0.1100000E+01  0.6378271E+02 -0.1570794E+01  0.1517535E-02 -0.7622249E-03  0.2995638E+03  0.1345097E-07  0.3994082E-04 -0.1090972E-02  0.5217350E+01 -0.1570789E+01  0.3072455E-04 -0.1659241E+01
  0.1200000E+01  0.6990915E+02 -0.1570804E+01  0.8716618E-03 -0.3138787E+01  0.2939050E+03  0.1092034E-07  0.3640794E-04 -0.3138787E+01  0.5672379E+01 -0.1570795E+01  0.1812521E-04  0.2097549E+01
  0.1300000E+01  0.7612855E+02 -0.1570802E+01  0.6074725E-04  0.3093676E+01  0.2877765E+03  0.5906912E-07  0.7839848E-04  0.1103396E-02  0.6122224E+01 -0.1570796E+01  0.1196112E-04  0.8501313E+00
  0.1400000E+01  0.8245174E+02 -0.1570793E+01  0.3483326E-03 -0.4217041E-02  0.2811838E+03  0.5056203E-10  0.2515375E-04 -0.3140440E+01  0.6566352E+01 -0.1570792E+01  0.2562102E-04 -0.1391726E+01
  0.1500000E+01  0.8889019E+02 -0.1570798E+01  0.7968670E-04 -0.3711863E-01  0.2741349E+03  0.3725358E-07  0.1357092E-04 -0.3134896E+01  0.7004222E+01 -0.1570796E+01  0.1225995E-04 -0.7166280E+00
  0.1600000E+01  0.9545631E+02 -0.1570794E+01  0.1919501E-04 -0.3126066E+01  0.2666374E+03 -0.7788603E-08  0.2067694E-04 -0.3141228E+01  0.7435276E+01 -0.1570796E+01  0.1187014E-04 -0.1405754E+01
  0.1700000E+01  0.1021622E+03 -0.1570795E+01  0.8546149E-03  0.3138715E+01  0.2587022E+03  0.1523601E-07  0.8712683E-04  0.3139386E+01  0.7858820E+01 -0.1570794E+01  0.3489935E-05 -0.2052476E+01
  0.1800000E+01  0.1090210E+03 -0.1570797E+01  0.4572039E-03  0.1260119E-01  0.2503418E+03  0.2739337E-07  0.1096461E-03 -0.3140961E+01  0.8274178E+01 -0.1570799E+01  0.9337110E-05 -0.2434648E+01
  0.1900000E+01  0.1160471E+03 -0.1570796E+01  0.9540467E-03  0.3136041E+01  0.2415669E+03  0.1584545E-07  0.4664984E-04 -0.3138428E+01  0.8680564E+01 -0.1570795E+01  0.5729812E-05 -0.2237376E+01
  0.2000000E+01  0.1232528E+03 -0.1570797E+01  0.1968623E-02 -0.8953102E-03  0.2323941E+03  0.2188065E-07  0.9423194E-04  0.3141143E+01  0.9077045E+01 -0.1570796E+01  0.3765009E-04 -0.1477256E+01
  0.2100000E+01  0.1306518E+03 -0.1570797E+01  0.1483918E-02  0.3140404E+01  0.2228401E+03 -0.5179864E-07  0.6314568E-04 -0.1157041E-03  0.9462595E+01 -0.1570797E+01  0.1696859E-04  0.1622301E+01
  0.2200000E+01  0.1382573E+03 -0.1570795E+01  0.8709554E-05  0.2970959E+01  0.2129230E+03  0.6626316E-08  0.1092406E-03 -0.4265172E-03  0.9836042E+01 -0.1570797E+01  0.1385652E-04  0.2990136E+01
  0.2300000E+01  0.1460788E+03 -0.1570797E+01  0.5075386E-03 -0.3125632E+01  0.2026657E+03  0.5272346E-07  0.5869416E-04  0.9966494E-03  0.1019598E+02 -0.1570793E+01  0.3021018E-04  0.1564168E+01
  0.2400000E+01  0.1541268E+03 -0.1570797E+01  0.1621376E-02 -0.3138035E+01  0.1920908E+03 -0.3882753E-07  0.2998009E-04 -0.6525995E-02  0.1054080E+02 -0.1570792E+01  0.1821952E-04  0.1500350E+01
  0.2500000E+01  0.1624064E+03 -0.1570794E+01  0.2265579E-02  0.2335319E-02  0.1812251E+03 -0.2898995E-07  0.3515479E-04  0.3137099E+01  0.1086864E+02 -0.1570795E+01  0.5361101E-04 -0.1887324E+01
  0.2600000E+01  0.1709200E+03 -0.1570797E+01  0.2431141E-03 -0.3122070E+01  0.1700969E+03  0.5545397E-09  0.1762553E-04  0.3136870E+01  0.1117734E+02 -0.1570793E+01  0.1993652E-04 -0.8476374E+00
  0.2700000E+01  0.1796643E+03 -0.1570797E+01  0.2713268E-03  0.6880452E-02  0.1587377E+03 -0.4293839E-07  0.1505465E-04  0.3137091E+01  0.1146437E+02 -0.1570795E+01  0.1715335E-04  0.8938147E+00
  0.2800000E+01  0.1886323E+03 -0.1570797E+01  0.1726465E-04  0.3704891E+00  0.1471795E+03  0.1054710E-06  0.4796147E-04  0.7168126E-03  0.1172697E+02 -0.1570796E+01  0.1458954E-04 -0.1395568E+01
  0.2900000E+01  0.1978076E+03 -0.1570796E+01  0.1120452E-02 -0.3139003E+01  0.1354568E+03 -0.2313223E-06  0.2974865E-04 -0.3140824E+01  0.1196197E+02 -0.1570795E+01  0.1317300E-04  0.2268573E+01
  0.3000000E+01  0.2071691E+03 -0.1570795E+01  0.1828916E-02 -0.3138750E+01  0.1236039E+03 -0.1451694E-06  0.4161632E-05 -0.3088687E+01  0.1216596E+02 -0.1570798E+01  0.9723676E-04 -0.1526149E+01
  0.3100000E+01  0.2166875E+03 -0.1570795E+01  0.3598186E-03 -0.3125780E+01  0.1116571E+03 -0.2055504E-06  0.7414352E-04  0.3260978E-02  0.1233523E+02 -0.1570799E+01  0.5314550E-04 -0.1561771E+01
  0.3200000E+01  0.2263274E+03 -0.1570796E+01  0.8225624E-04 -0.3134924E+01  0.9965188E+02 -0.8906276E-07  0.9115269E-04 -0.1820460E-03  0.1246599E+02 -0.1570797E+01  0.4757534E-04  0.1494357E+01
  0.3300000E+01  0.2360477E+03 -0.1570797E+01  0.4335953E-03  0.2633424E-01  0.8762271E+02  0.8816441E-07  0.2854785E-04 -0.1025362E-01  0.1255433E+02 -0.1570797E+01  0.3915074E-04  0.1519248E+01
  0.3400000E+01  0.2458022E+03 -0.1570796E+01  0.1457002E-02  0.3135605E+01  0.7560397E+02 -0.1393392E-06  0.1308632E-04  0.3309938E-01  0.1259640E+02 -0.1570797E+01  0.1909107E-03 -0.1523249E+01
  0.3500000E+01  0.2555416E+03 -0.1570797E+01  0.3144365E-03 -0.2278178E-01  0.6362864E+02  0.1298718E-06  0.1611093E-04 -0.3136405E+01  0.1258843E+02 -0.1570798E+01  0.9916064E-04 -0.1561714E+01
  0.3600000E+01  0.2652143E+03 -0.1570796E+01  0.2220649E-03 -0.3112000E+01  0.5172796E+02  0.2409519E-06  0.4844802E-05 -0.3052996E+01  0.1252690E+02 -0.1570796E+01  0.1366218E-03  0.1534482E+01
  0.3700000E+01  0.2747661E+03 -0.1570796E+01  0.1708041E-02 -0.3491292E-02  0.3993407E+02  0.1307054E-06  0.4029586E-05 -0.2996570E+01  0.1240872E+02 -0.1570796E+01  0.1532648E-04  0.4122456E+00
  0.3800000E+01  0.2841456E+03 -0.1570796E+01  0.6925034E-03  0.6924758E-02  0.2827573E+02 -0.8759434E-07  0.9456636E-04 -0.3139445E+01  0.1223097E+02 -0.1570796E+01  0.1016293E-03  0.1513922E+01
  0.3900000E+01  0.2933007E+03 -0.1570797E+01  0.7076294E-05  0.2604424E+01  0.1678217E+02 -0.7449099E-06  0.4752866E-04  0.3136008E+01  0.1199142E+02 -0.1570796E+01  0.7224768E-04 -0.1568515E+01
  0.4000000E+01  0.3021813E+03 -0.1570796E+01  0.6139997E-03 -0.3109801E+01  0.5481304E+01 -0.1446711E-05  0.4104418E-04  0.3139846E+01  0.1168819E+02 -0.1570797E+01  0.8856755E-05 -0.2016076E+01
  0.4100000E+01  0.3107395E+03 -0.1570796E+01  0.8018017E-03  0.4553226E-03  0.5598760E+01 -0.3141592E+01  0.4359587E-04  0.1099635E-01  0.1131984E+02 -0.1570798E+01  0.4677140E-04 -0.1646276E+01
  0.4200000E+01  0.3189285E+03 -0.1570796E+01  0.2342511E-03  0.3135148E+01  0.1643097E+02  0.3141592E+01  0.1949001E-04 -0.8296248E-03  0.1088557E+02 -0.1570797E+01  0.1565819E-04  0.2036378E+01
  0.4300000E+01  0.3267037E+03 -0.1570796E+01  0.1579314E-02  0.3135528E+01  0.2698800E+02  0.3141592E+01  0.4346269E-04 -0.3412189E-01  0.1038503E+02 -0.1570797E+01  0.4843961E-04 -0.1759703E+01
  0.4400000E+01  0.3340242E+03 -0.1570796E+01  0.1492533E-03 -0.3134966E+01  0.3724477E+02 -0.3141593E+01  0.4989692E-04 -0.1011505E-01  0.9818346E+01 -0.1570796E+01  0.6732227E-04  0.1719944E+01
  0.4500000E+01  0.3408503E+03 -0.1570796E+01  0.6374240E-03  0.6117548E-02  0.4717405E+02 -0.3141593E+01  0.1209670E-04  0.2023095E-01  0.9186097E+01 -0.1570796E+01  0.3567754E-04 -0.1698333E+01
  0.4600000E+01  0.3471444E+03 -0.1570796E+01  0.2291383E-03 -0.3106973E+01  0.5675228E+02 -0.3141593E+01  0.2202573E-04  0.1475482E-01  0.8489439E+01 -0.1570796E+01  0.2859724E-04  0.2053574E+01
  0.4700000E+01  0.3528706E+03 -0.1570796E+01  0.6824443E-04 -0.4356675E+00  0.6595415E+02 -0.3141593E+01  0.1555409E-04  0.3115469E+01  0.7729864E+01 -0.1570797E+01  0.5041355E-04 -0.1796858E+01
  0.4800000E+01  0.3579955E+03 -0.1570796E+01  0.6466299E-04  0.3993494E-01  0.7475633E+02  0.3141593E+01  0.1692278E-04  0.1618619E-01  0.6909467E+01 -0.1570796E+01  0.2441665E-04  0.1577319E+01
  0.4900000E+01  0.3624881E+03 -0.1570797E+01  0.1135481E-03 -0.2966822E+01  0.8313676E+02 -0.3141593E+01  0.3913343E-04  0.3133348E+01  0.6030578E+01 -0.1570796E+01  0.2590469E-04 -0.1470358E+01
  0.5000000E+01  0.3663183E+03 -0.1570796E+01  0.2650754E-03 -0.3103491E+01  0.9107394E+02 -0.3141593E+01  0.6553381E-05 -0.1651616E-01  0.5096112E+01 -0.1570797E+01  0.3500647E-04 -0.1746530E+01
  0.5100000E+01  0.3694577E+03 -0.1570797E+01  0.2031912E-03  0.2401057E-01  0.9854810E+02 -0.3141593E+01  0.7749550E-05 -0.3118826E+01  0.4109316E+01 -0.1570795E+01  0.9177732E-04  0.1532713E+01
  0.5200000E+01  0.3718831E+03 -0.1570796E+01  0.3778624E-03 -0.3089865E+01  0.1055414E+03  0.3141593E+01  0.3271898E-04 -0.3137792E+01  0.3073622E+01 -0.1570796E+01  0.1740074E-03  0.1543414E+01
  0.5300000E+01  0.3735702E+03 -0.1570796E+01  0.1050778E-03 -0.2158599E+00  0.1120373E+03 -0.3141593E+01  0.1523440E-05 -0.2437605E+01  0.1993136E+01 -0.1570797E+01  0.6998479E-04 -0.1399666E+01
  0.5400000E+01  0.3744974E+03 -0.1570796E+01  0.2225649E-03  0.5678906E-01  0.1180200E+03 -0.3141593E+01  0.7581072E-05  0.3089176E+01  0.8720131E+00 -0.1570797E+01  0.1082360E-03  0.1542075E+01
  0.5500000E+01  0.3746478E+03 -0.1570796E+01  0.2115369E-03  0.3094105E+01  0.1234782E+03  0.3141593E+01  0.3108098E-05  0.2175436E+00  0.2851245E+00  0.1570797E+01  0.8790234E-05  0.1835740E+01
  0.5600000E+01  0.3740048E+03 -0.1570796E+01  0.1448494E-03  0.3129775E+01  0.1283996E+03 -0.3141593E+01  0.2565695E-05 -0.1253771E+00  0.1473513E+01  0.1570799E+01  0.3748828E-04  0.1477836E+01
  0.5700000E+01  0.3725557E+03 -0.1570796E+01  0.9832979E-03  0.3523368E-03  0.1327770E+03 -0.3141593E+01  0.4698070E-05 -0.3063679E+01  0.2688199E+01  0.1570798E+01  0.2847423E-04  0.1607355E+01
  0.5800000E+01  0.3702889E+03 -0.1570796E+01  0.9663701E-03  0.3141361E+01  0.1366031E+03  0.3141593E+01  0.5200999E-05 -0.9298972E-01  0.3923894E+01  0.1570802E+01  0.1008060E-03 -0.1597578E+01
  0.5900000E+01  0.3671980E+03 -0.1570796E+01  0.3980837E-04 -0.1966615E+00  0.1398740E+03 -0.3141593E+01  0.7166948E-05  0.3129350E+01  0.5175206E+01  0.1570794E+01  0.6859047E-04  0.1590981E+01
  0.6000000E+01  0.3632784E+03 -0.1570796E+01  0.1127873E-03  0.2831488E+01  0.1425883E+03  0.3141592E+01  0.7750305E-05 -0.3051774E+01  0.6436672E+01  0.1570795E+01  0.1808917E-03  0.1567743E+01
  0.6100000E+01  0.3585264E+03 -0.1570796E+01  0.4403234E-03  0.9654291E-01  0.1447462E+03 -0.3141593E+01  0.2034641E-04  0.7502375E-01  0.7702717E+01  0.1570795E+01  0.8540844E-04  0.1599179E+01
  0.6200000E+01  0.3529460E+03 -0.1570796E+01  0.2867442E-03 -0.2711697E-01  0.1463519E+03  0.3141593E+01  0.1517495E-04  0.3042073E+01  0.8967729E+01  0.1570796E+01  0.1655139E-03  0.1569401E+01
  0.6300000E+01  0.3465400E+03 -0.1570796E+01  0.6105910E-03 -0.3080651E+01  0.1474102E+03 -0.3141593E+01  0.3712009E-05  0.2996639E+01  0.1022604E+02  0.1570796E+01  0.1382263E-03 -0.1578595E+01
  0.6400000E+01  0.3393178E+03 -0.1570796E+01  0.1150378E-03 -0.6450346E-01  0.1479297E+03 -0.3141593E+01  0.1921095E-04  0.8556991E-01  0.1147208E+02  0.1570798E+01  0.1060691E-03 -0.1551518E+01
  0.6500000E+01  0.3312880E+03 -0.1570796E+01  0.3479224E-03 -0.3133980E+01  0.1479214E+03  0.3141593E+01  0.2169878E-05  0.6914499E+00  0.1270053E+02  0.1570796E+01  0.1090245E-04  0.1658253E+01
  0.6600000E+01  0.3224661E+03 -0.1570796E+01  0.1813423E-03 -0.3054927E+01  0.1473981E+03  0.3141592E+01  0.1726636E-04  0.3102264E+01  0.1390590E+02  0.1570797E+01  0.4370722E-04 -0.1584189E+01
  0.6700000E+01  0.3128699E+03 -0.1570796E+01  0.1522688E-03  0.1524949E+00  0.1463758E+03 -0.3141593E+01  0.1168605E-04  0.3049747E+01  0.1508312E+02  0.1570795E+01  0.1028445E-03 -0.1549496E+01
  0.6800000E+01  0.3025193E+03 -0.1570796E+01  0.7440904E-04  0.1226411E+00  0.1448718E+03 -0.3141593E+01  0.1463791E-05 -0.1445770E+01  0.1622705E+02  0.1570797E+01  0.6523489E-05 -0.1579434E+01
  0.6900000E+01  0.2914382E+03 -0.1570796E+01  0.1497790E-03 -0.1193450E+00  0.1429064E+03 -0.3141592E+01  0.3432394E-05  0.5618675E-01  0.1733322E+02  0.1570796E+01  0.3567800E-04 -0.1627981E+01
  0.7000000E+01  0.2796532E+03 -0.1570796E+01  0.1855652E-03 -0.3083411E+01  0.1405027E+03 -0.3141593E+01  0.4342699E-05 -0.2966544E+01  0.1839706E+02  0.1570796E+01  0.7157645E-04 -0.1561265E+01
  0.7100000E+01  0.2671938E+03 -0.1570796E+01  0.1208611E-03  0.2652621E-01  0.1376838E+03 -0.3141593E+01  0.5534395E-05  0.8317657E-01  0.1941456E+02  0.1570796E+01  0.2256944E-04 -0.1649156E+01
  0.7200000E+01  0.2540946E+03 -0.1570796E+01  0.4435603E-04  0.2141809E-01  0.1344773E+03  0.3141593E+01  0.4148124E-05 -0.1570527E+00  0.2038205E+02  0.1570796E+01  0.2732200E-04  0.1545757E+01
  0.7300000E+01  0.2403893E+03 -0.1570796E+01  0.5909373E-04  0.4764755E+00  0.1309105E+03 -0.3141593E+01  0.6186397E-05 -0.1876408E+00  0.2129625E+02  0.1570796E+01  0.9294430E-04  0.1580972E+01
  0.7400000E+01  0.2261171E+03 -0.1570796E+01  0.2602953E-03  0.3104331E+01  0.1270135E+03 -0.3141592E+01  0.4263941E-05 -0.2743151E+01  0.2215424E+02  0.1570796E+01  0.9453168E-04 -0.1564836E+01
  0.7500000E+01  0.2113188E+03 -0.1570796E+01  0.2039161E-03 -0.9189306E-02  0.1228174E+03  0.3141593E+01  0.4175609E-05  0.3145060E-01  0.2295355E+02  0.1570796E+01  0.4495022E-05 -0.1726349E+01
  0.7600000E+01  0.1960374E+03 -0.1570796E+01  0.4954671E-04  0.2481440E-01  0.1183537E+03  0.3141592E+01  0.1461883E-04 -0.3065556E+01  0.2369246E+02  0.1570797E+01  0.3837764E-04 -0.1558790E+01
  0.7700000E+01  0.1803187E+03 -0.1570796E+01  0.2090401E-03  0.3037150E+01  0.1136575E+03 -0.3141593E+01  0.1943547E-05 -0.2736889E+00  0.2436930E+02  0.1570797E+01  0.4897400E-04  0.1578085E+01
  0.7800000E+01  0.1642104E+03 -0.1570796E+01  0.2411476E-03  0.4326066E-01  0.1087620E+03  0.3141592E+01  0.4224298E-06  0.1912940E+01  0.2498330E+02  0.1570796E+01  0.1074953E-04 -0.1572334E+01
  0.7900000E+01  0.1477617E+03 -0.1570796E+01  0.2324298E-04  0.2824404E+01  0.1037023E+03 -0.3141592E+01  0.3265963E-05  0.2681550E+00  0.2553404E+02  0.1570796E+01  0.7105143E-04 -0.1566127E+01
  0.8000000E+01  0.1310233E+03 -0.1570796E+01  0.7502897E-04  0.1533779E+00  0.9851353E+02 -0.3141592E+01  0.1764134E-05  0.1728248E+00  0.2602156E+02  0.1570796E+01  0.2761675E-05  0.1678412E+01
  0.8100000E+01  0.1140479E+03 -0.1570796E+01  0.3862129E-04 -0.2649255E+01  0.9323161E+02 -0.3141592E+01  0.7310262E-06 -0.7884067E+00  0.2644655E+02  0.1570797E+01  0.1284261E-03  0.1582218E+01
  0.8200000E+01  0.9688936E+02 -0.1570795E+01  0.2199775E-04 -0.4425917E+00  0.8789139E+02  0.3141592E+01  0.1482479E-05  0.1003307E+01  0.2681023E+02  0.1570796E+01  0.6138338E-04 -0.1571434E+01
  0.8300001E+01  0.7960139E+02 -0.1570796E+01  0.3257749E-04  0.1058585E+00  0.8252805E+02  0.3141593E+01  0.8160416E-06 -0.1588126E+01  0.2711410E+02  0.1570797E+01  0.1236091E-03 -0.1573725E+01
  0.8400001E+01  0.6224003E+02 -0.1570795E+01  0.1975758E-04 -0.3087924E+01  0.7717619E+02 -0.3141592E+01  0.9227513E-06  0.3017372E+01  0.2736036E+02  0.1570796E+01  0.4262489E-04 -0.1588998E+01
  0.8500001E+01  0.4486027E+02 -0.1570793E+01  0.1455691E-04 -0.4287842E-01  0.7186902E+02  0.3141592E+01  0.1063000E-05  0.5275165E+00  0.2755149E+02  0.1570796E+01  0.2841319E-04  0.1595431E+01
  0.8600000E+01  0.2751811E+02 -0.1570794E+01  0.9218271E-05 -0.7562469E+00  0.6663971E+02 -0.3141592E+01  0.4708831E-05  0.1630327E-02  0.2769072E+02  0.1570797E+01  0.5813071E-04 -0.1549975E+01
  0.8700000E+01  0.1026892E+02 -0.1570790E+01  0.1043258E-04  0.3123202E+01  0.6151908E+02  0.3141592E+01  0.1809370E-05  0.2995085E+01  0.2778123E+02  0.1570797E+01  0.7479287E-05 -0.1552647E+01
  0.8800001E+01  0.6831398E+01  0.1570806E+01  0.5643222E-04  0.3101115E+01  0.5653716E+02 -0.3141592E+01  0.4892764E-05 -0.1291675E+00  0.2782686E+02  0.1570797E+01  0.6744362E-04  0.1571093E+01
  0.8900001E+01  0.2372879E+02  0.1570793E+01  0.3836684E-04 -0.2834679E+00  0.5172199E+02  0.3141592E+01  0.1888374E-06 -0.2935524E+00  0.2783166E+02  0.1570796E+01  0.2536042E-04 -0.1557217E+01
  0.9000001E+01  0.4036907E+02  0.1570800E+01  0.1739617E-03  0.3054379E+01  0.4709947E+02  0.3141592E+01  0.1929418E-06 -0.2114341E+01  0.2780001E+02  0.1570796E+01  0.1397138E-03  0.1555739E+01
  0.9100000E+01  0.5669926E+02  0.1570797E+01  0.7584955E-05 -0.1007043E+01  0.4269375E+02  0.3141592E+01  0.4935705E-05 -0.2261963E-01  0.2773636E+02  0.1570796E+01  0.5415262E-04  0.1561711E+01
  0.9200000E+01  0.7266823E+02  0.1570797E+01  0.5656262E-04 -0.3029426E+01  0.3852676E+02  0.3141592E+01  0.1059678E-04 -0.3184453E-01  0.2764538E+02  0.1570796E+01  0.4416169E-05 -0.2368505E+01
  0.9300001E+01  0.8822629E+02  0.1570796E+01  0.3604330E-04  0.2093753E+00  0.3461758E+02 -0.3141590E+01  0.8807689E-05 -0.3088844E+01  0.2753192E+02  0.1570796E+01  0.7623649E-04 -0.1582448E+01
  0.9400001E+01  0.1033245E+03  0.1570797E+01  0.5904914E-04  0.3075238E+01  0.3098290E+02  0.3141593E+01  0.1672710E-04  0.3096327E+01  0.2740076E+02  0.1570796E+01  0.6530110E-05 -0.1456631E+01
  0.9500001E+01  0.1179175E+03  0.1570796E+01  0.4393041E-04  0.6550002E+00  0.2763692E+02 -0.3141592E+01  0.1094683E-04  0.3117878E+01  0.2725661E+02  0.1570796E+01  0.1424030E-04 -0.1504833E+01
  0.9600000E+01  0.1319600E+03  0.1570797E+01  0.5755445E-04  0.3083954E+01  0.2459144E+02  0.3141593E+01  0.3541655E-05 -0.5687150E-01  0.2710423E+02  0.1570796E+01  0.3942736E-04 -0.1496913E+01
  0.9700001E+01  0.1454113E+03  0.1570796E+01  0.5231146E-04 -0.7759390E-01  0.2185429E+02 -0.3141592E+01  0.5265256E-05  0.7745144E-01  0.2694823E+02  0.1570796E+01  0.2893336E-04 -0.1579290E+01
  0.9800001E+01  0.1582315E+03  0.1570796E+01  0.1101257E-03 -0.3088509E+01  0.1943143E+02 -0.3141593E+01  0.1752855E-04 -0.6014319E-01  0.2679278E+02  0.1570796E+01  0.1609004E-04 -0.1691221E+01
  0.9900001E+01  0.1703839E+03  0.1570796E+01  0.2924779E-04 -0.3218513E+00  0.1732553E+02  0.3141591E+01  0.2872001E-05  0.3032871E+01  0.2664199E+02  0.1570796E+01  0.2034619E-04  0.1594177E+01
  0.1000000E+02  0.1818349E+03  0.1570796E+01  0.4238175E-04  0.2846196E+01  0.1553669E+02  0.3141592E+01  0.8548538E-05  0.7768147E-01  0.2649950E+02  0.1570796E+01  0.4471836E-04 -0.1518725E+01
  0.1010000E+02  0.1925530E+03  0.1570796E+01  0.2039918E-03 -0.3118480E+01  0.1406186E+02  0.3141591E+01  0.3469678E-04 -0.3812934E-02  0.2636868E+02  0.1570796E+01  0.4554922E-04  0.1566914E+01
  0.1020000E+02  0.2025103E+03  0.1570797E+01  0.7048631E-04  0.3131181E+01  0.1289546E+02  0.3141588E+01  0.2398672E-04  0.1013349E-01  0.2625220E+02  0.1570796E+01  0.2152475E-04 -0.1629945E+01
  0.1030000E+02  0.2116811E+03  0.1570797E+01  0.9576332E-04 -0.3119505E+01  0.1202900E+02  0.3141591E+01  0.1234890E-05 -0.4380415E-01  0.2615252E+02  0.1570796E+01  0.2837973E-04 -0.1610416E+01
  0.1040000E+02  0.2200430E+03  0.1570796E+01  0.5575407E-04  0.3722537E-01  0.1145175E+02  0.3141591E+01  0.1792846E-04  0.3109353E+01  0.2607149E+02  0.1570796E+01  0.1634199E-04  0.1597107E+01
  0.1050000E+02  0.2275779E+03  0.1570796E+01  0.1860884E-03  0.5350085E-02  0.1115037E+02 -0.3141593E+01  0.1602058E-04 -0.3107530E+01  0.2601016E+02  0.1570796E+01  0.1286250E-04 -0.1506854E+01
  0.1060000E+02  0.2342691E+03  0.1570796E+01  0.2487601E-03 -0.9734033E-03  0.1110931E+02  0.3141586E+01  0.1993707E-04 -0.3109650E+01  0.2596933E+02  0.1570796E+01  0.3713268E-04 -0.1559409E+01
  0.1070000E+02  0.2401036E+03  0.1570796E+01  0.1590937E-03 -0.1730506E-01  0.1131092E+02  0.3141587E+01  0.1785017E-04  0.3103495E+01  0.2594868E+02  0.1570796E+01  0.1527851E-04 -0.1633455E+01
  0.1080000E+02  0.2450715E+03  0.1570796E+01  0.3147296E-03 -0.3687072E-02  0.1173578E+02  0.3141592E+01  0.2526748E-05  0.2386459E-01  0.2594770E+02  0.1570796E+01  0.7807719E-05 -0.1519751E+01
  0.1090000E+02  0.2491670E+03  0.1570796E+01  0.1887448E-03  0.8452546E-02  0.1236279E+02  0.3141593E+01  0.6605963E-05 -0.2149345E-01  0.2596505E+02  0.1570796E+01  0.1107453E-05  0.2488314E-01
  0.1100000E+02  0.2523845E+03  0.1570796E+01  0.1457387E-04  0.3133029E+01  0.1316946E+02  0.3141589E+01  0.7031906E-05 -0.3134297E+01  0.2599865E+02  0.1570796E+01  0.9353541E-05 -0.1680705E+01
  0.1110000E+02  0.2547247E+03  0.1570796E+01  0.4071577E-04  0.3124711E+01  0.1413210E+02 -0.3141589E+01  0.3882495E-04  0.3138852E+01  0.2604589E+02  0.1570796E+01  0.4678154E-05 -0.2223317E+01
  0.1120000E+02  0.2561895E+03  0.1570796E+01  0.1825111E-03  0.3137250E+01  0.1522599E+02  0.3141591E+01  0.8720655E-05  0.3120685E+01  0.2610329E+02  0.1570796E+01  0.3337680E-05 -0.1597796E+01
  0.1130000E+02  0.2567841E+03  0.1570796E+01  0.1435885E-03  0.2521395E-01  0.1642611E+02  0.3141589E+01  0.1380917E-04 -0.3128430E+01  0.2616707E+02  0.1570796E+01  0.6705732E-05  0.1384589E+01
  0.1140000E+02  0.2565155E+03  0.1570796E+01  0.9299815E-04 -0.3141412E+01  0.1770680E+02 -0.3141592E+01  0.1115482E-04 -0.3128142E+01  0.2623269E+02  0.1570796E+01  0.4148785E-05 -0.1958671E+01
  0.1150000E+02  0.2553951E+03  0.1570796E+01  0.5121072E-04 -0.1060269E-01  0.1904239E+02  0.3141590E+01  0.1451189E-04  0.3139822E+01  0.2629524E+02  0.1570796E+01  0.2874324E-05  0.1326434E+01
  0.1160000E+02  0.2534356E+03  0.1570796E+01  0.1389474E-03  0.3126223E+01  0.2040746E+02  0.3141591E+01  0.2492835E-05  0.3897412E-01  0.2634893E+02  0.1570796E+01  0.5865855E-05  0.1402339E+01
  0.1170000E+02  0.2506538E+03  0.1570796E+01  0.1051694E-03 -0.3132427E+01  0.2177688E+02  0.3141592E+01  0.3028777E-05  0.3128190E+01  0.2638825E+02  0.1570796E+01  0.2643744E-05 -0.9652261E+00
  0.1180000E+02  0.2470657E+03  0.1570796E+01  0.2552420E-03  0.7334052E-03  0.2312642E+02 -0.3141593E+01  0.2606913E-04 -0.7029630E-03  0.2640667E+02  0.1570796E+01  0.4762308E-05  0.1447414E+01
  0.1190000E+02  0.2426942E+03  0.1570796E+01  0.1819707E-03 -0.1175628E-01  0.2443263E+02 -0.3141592E+01  0.2243863E-04 -0.1187815E-02  0.2639771E+02  0.1570796E+01  0.2334843E-05 -0.2180218E+01
  0.1200000E+02  0.2375608E+03  0.1570796E+01  0.1404956E-03  0.3141109E+01  0.2567337E+02 -0.3141592E+01  0.1243257E-04 -0.9477844E-02  0.2635463E+02  0.1570796E+01  0.4740905E-05  0.1367967E+01
  0.1210000E+02  0.2316914E+03  0.1570796E+01  0.1064923E-03 -0.3136992E+01  0.2682778E+02 -0.3141592E+01  0.7346072E-05  0.1445709E-01  0.2627075E+02  0.1570796E+01  0.1966659E-05 -0.7121644E+00
  0.1220000E+02  0.2251134E+03  0.1570796E+01  0.5591816E-04  0.7444899E-02  0.2787679E+02 -0.3141592E+01  0.1288980E-04  0.2849865E-01  0.2613915E+02  0.1570796E+01  0.1093539E-04 -0.1525968E+01
  0.1230000E+02  0.2178551E+03  0.1570796E+01  0.7199925E-04  0.3107618E+01  0.2880303E+02  0.3141593E+01  0.2373931E-04 -0.7206753E-02  0.2595315E+02  0.1570796E+01  0.2012671E-04 -0.1515883E+01
  0.1240000E+02  0.2099489E+03  0.1570796E+01  0.2767585E-04 -0.3097630E+01  0.2959114E+02  0.3141592E+01  0.2078235E-04 -0.3344104E-02  0.2570613E+02  0.1570796E+01  0.1057965E-04  0.1590643E+01
  0.1250000E+02  0.2014278E+03  0.1570796E+01  0.2952096E-04  0.3090178E+01  0.3022768E+02 -0.3141593E+01  0.2919883E-05  0.4849960E-01  0.2539197E+02  0.1570796E+01  0.2147069E-04  0.1566453E+01
  0.1260000E+02  0.1923271E+03  0.1570796E+01  0.2313262E-04  0.3075356E+01  0.3070160E+02 -0.3141593E+01  0.6964631E-06 -0.2906088E+01  0.2500470E+02  0.1570796E+01  0.3113634E-04 -0.1577807E+01
  0.1270000E+02  0.1826829E+03  0.1570797E+01  0.4830229E-04  0.2728283E-02  0.3100394E+02  0.3141592E+01  0.1302504E-05  0.4586579E-02  0.2453892E+02  0.1570796E+01  0.2450457E-04  0.1593578E+01
  0.1280000E+02  0.1725352E+03  0.1570797E+01  0.8099656E-04  0.3126892E+01  0.3112835E+02 -0.3141592E+01  0.3056829E-05  0.8619776E-01  0.2398987E+02  0.1570796E+01  0.6453427E-05 -0.1557596E+01
  0.1290000E+02  0.1619243E+03  0.1570796E+01  0.1904747E-04 -0.5939323E-01  0.3107063E+02  0.3141592E+01  0.2153155E-04  0.2858934E-02  0.2335338E+02  0.1570796E+01  0.2478784E-04 -0.1594883E+01
  0.1300000E+02  0.1508915E+03  0.1570796E+01  0.8176472E-04 -0.1188603E-01  0.3082902E+02  0.3141592E+01  0.3720226E-05  0.2521428E-02  0.2262613E+02  0.1570796E+01  0.2358340E-04  0.1580918E+01
  0.1310000E+02  0.1394812E+03  0.1570796E+01  0.3178196E-04  0.3559662E-01  0.3040396E+02 -0.3141592E+01  0.1131885E-04  0.4621295E-01  0.2180548E+02  0.1570796E+01  0.2287097E-04  0.1516401E+01
  0.1320000E+02  0.1277381E+03  0.1570797E+01  0.1035895E-04 -0.3005506E+01  0.2979837E+02 -0.3141592E+01  0.7629300E-05 -0.7661588E-01  0.2088984E+02  0.1570796E+01  0.4049239E-05  0.1425828E+01
  0.1330000E+02  0.1157085E+03  0.1570796E+01  0.9481952E-05 -0.2864210E+01  0.2901712E+02 -0.3141592E+01  0.8947954E-06 -0.7519863E+00  0.1987844E+02  0.1570797E+01  0.9856429E-05  0.1530793E+01
  0.1340000E+02  0.1034409E+03  0.1570796E+01  0.4895018E-04 -0.4610664E-01  0.2806739E+02 -0.3141592E+01  0.1674089E-05 -0.2876187E+01  0.1877168E+02  0.1570796E+01  0.1078857E-04  0.1633572E+01
  0.1350000E+02  0.9098387E+02  0.1570796E+01  0.3116909E-04 -0.3104070E+01  0.2695810E+02  0.3141593E+01  0.6952289E-05 -0.7314631E-01  0.1757098E+02  0.1570796E+01  0.2072214E-04  0.1568673E+01
  0.1360000E+02  0.7838831E+02  0.1570796E+01  0.3545396E-04  0.4597005E-02  0.2570020E+02 -0.3141592E+01  0.5395282E-05 -0.6609384E-01  0.1627868E+02  0.1570796E+01  0.7441500E-05  0.1625429E+01
  0.1370000E+02  0.6570527E+02  0.1570796E+01  0.2510970E-04  0.6746253E-01  0.2430591E+02 -0.3141592E+01  0.4803596E-06 -0.2553580E+01  0.1489849E+02  0.1570796E+01  0.2070006E-05 -0.1420295E+01
  0.1380000E+02  0.5298702E+02  0.1570795E+01  0.5647999E-05 -0.8990598E-01  0.2278926E+02 -0.3141592E+01  0.1272936E-05  0.2874031E+01  0.1343501E+02  0.1570798E+01  0.1188663E-04  0.1575581E+01
  0.1390000E+02  0.4028653E+02  0.1570798E+01  0.4523252E-04 -0.3140131E+01  0.2116525E+02  0.3141593E+01  0.2668199E-05  0.2482045E-01  0.1189407E+02  0.1570796E+01  0.8182058E-05  0.1570885E+01
  0.1400000E+02  0.2765750E+02  0.1570795E+01  0.2867977E-05  0.8632340E-01  0.1944990E+02  0.3141593E+01  0.1347700E-05  0.2932098E+01  0.1028245E+02  0.1570796E+01  0.2611143E-04 -0.1559618E+01
  0.1410000E+02  0.1515394E+02  0.1570795E+01  0.1261243E-04  0.3102225E+01  0.1766022E+02  0.3141593E+01  0.2140331E-05 -0.3133420E+00  0.8608052E+01  0.1570795E+01  0.2198691E-06  0.2015363E+01
  0.1420000E+02  0.2830083E+01  0.1570821E+01  0.3865435E-05  0.2760035E+01  0.1581354E+02 -0.3141593E+01  0.6249153E-06 -0.4167550E+00  0.6879742E+01  0.1570796E+01  0.3809274E-05 -0.1548397E+01
  0.1430000E+02  0.9259900E+01 -0.1570792E+01  0.1797858E-05 -0.1873789E+01  0.1392762E+02  0.3141592E+01  0.6503117E-06 -0.4735245E+00  0.5107263E+01  0.1570796E+01  0.2256326E-04 -0.1573174E+01
  0.1440000E+02  0.2106209E+02 -0.1570802E+01  0.3060333E-05  0.9294255E+00  0.1202029E+02  0.3141592E+01  0.2142669E-06  0.4907832E+00  0.3301169E+01  0.1570797E+01  0.2223417E-04  0.1566782E+01
  0.1450000E+02  0.3252324E+02 -0.1570796E+01  0.2398255E-05 -0.2040696E+01  0.1010921E+02 -0.3141593E+01  0.1691064E-05 -0.2959303E+01  0.1472793E+01  0.1570794E+01  0.1271121E-04  0.1554994E+01
  0.1460000E+02  0.4359042E+02 -0.1570794E+01  0.2955093E-05  0.1401697E+01  0.8211799E+01  0.3141591E+01  0.1265774E-05 -0.5397183E-01  0.3658873E+00 -0.1570795E+01  0.8273417E-05 -0.1620059E+01
  0.1470000E+02  0.5421275E+02 -0.1570796E+01  0.1602657E-04  0.1123033E+00  0.6344778E+01 -0.3141591E+01  0.7285491E-06  0.2582455E+01  0.2202481E+01 -0.1570795E+01  0.4327594E-06 -0.2225297E+01
  0.1480000E+02  0.6434007E+02 -0.1570797E+01  0.1199228E-04  0.2836512E+01  0.4524241E+01 -0.3141591E+01  0.2816417E-05  0.8342736E-01  0.4024077E+01 -0.1570793E+01  0.5722145E-05  0.1566178E+01
  0.1490000E+02  0.7392438E+02 -0.1570796E+01  0.2406801E-04  0.1051843E+00  0.2765202E+01 -0.3141593E+01  0.4101754E-05  0.3064089E+01  0.5817642E+01 -0.1570796E+01  0.1344639E-04  0.1568819E+01
  0.1500000E+02  0.8292017E+02 -0.1570796E+01  0.2461878E-04  0.3279483E-01  0.1081662E+01  0.3141584E+01  0.1907320E-05  0.3014638E+01  0.7569951E+01 -0.1570796E+01  0.3990483E-05 -0.1475430E+01
  0.1510000E+02  0.9128389E+02 -0.1570797E+01  0.2277490E-04 -0.3070164E+01  0.5136334E+00  0.7025064E-05  0.3133757E-05 -0.1013850E+00  0.9267824E+01 -0.1570796E+01  0.1561340E-04  0.1556727E+01