VARIABLES="w (rad/s)"  
"A   1   1" "B   1   1"
"A   1   2" "B   1   2"
"A   1   3" "B   1   3"
"A   1   4" "B   1   4"
"A   1   5" "B   1   5"
"A   1   6" "B   1   6"
Zone t="Motion of body    1 in DoF   1",I=   800,F=POINT
  0.1000000E+00  0.5610407E+01  0.2872591E-05 -0.8461939E-07  0.8830492E-12 -0.9846987E-04  0.4129542E-07  0.2820657E-08 -0.3560801E-14  0.2647135E+00  0.2261168E-06  0.3444657E-06  0.7457409E-12
  0.2000000E+00  0.7221237E+01  0.2474788E-04  0.7599010E-07  0.9541879E-11 -0.5029736E-04 -0.1483990E-05 -0.5626144E-08 -0.2153252E-12  0.4514717E+00  0.1989198E-05  0.1150214E-05  0.7378759E-11
  0.3000000E+00  0.6530030E+01  0.8181582E-04 -0.3296736E-07  0.2677112E-10 -0.6829122E-04 -0.1359972E-05 -0.2356931E-08 -0.1135047E-12  0.3673587E+00  0.6478203E-05 -0.3254658E-06  0.5911476E-11
  0.4000000E+00  0.6533175E+01  0.1969203E-03  0.2248453E-07  0.9520562E-10 -0.6697809E-04 -0.1811078E-05  0.9589418E-09 -0.2734831E-12  0.3673483E+00  0.1554428E-04 -0.1231255E-06  0.7973955E-11
  0.5000000E+00  0.6537216E+01  0.3911563E-03  0.8992538E-07  0.6927792E-11 -0.6676518E-04 -0.2224773E-05  0.1210762E-08 -0.1438552E-11  0.3673349E+00  0.3074054E-04  0.2447925E-06  0.1733344E-09
  0.6000000E+00  0.6542779E+01  0.6906062E-03  0.9272480E-07 -0.1881716E-09 -0.6716289E-04 -0.2650867E-05 -0.3764846E-09  0.1023143E-11  0.3673926E+00  0.5398944E-04 -0.5475986E-06 -0.2549316E-09
  0.7000000E+00  0.6548446E+01  0.1124934E-02 -0.3028981E-07  0.7580568E-10 -0.6671749E-04 -0.2977177E-05  0.6402250E-09 -0.2095304E-11  0.3673296E+00  0.8736795E-04  0.5614874E-06 -0.3191144E-09
  0.8000000E+00  0.6554871E+01  0.1729661E-02  0.9264113E-07  0.2755087E-09 -0.6647511E-04 -0.3387091E-05 -0.2142804E-08  0.6040776E-11  0.3672787E+00  0.1333328E-03 -0.9577008E-08  0.2206594E-09
  0.9000000E+00  0.6563481E+01  0.2546867E-02  0.1623339E-06 -0.7283774E-10 -0.6675086E-04 -0.3617032E-05 -0.2129398E-08  0.8592439E-12  0.3673324E+00  0.1946542E-03 -0.3076563E-06 -0.5276413E-09
  0.1000000E+01  0.6572707E+01  0.3627956E-02 -0.1496846E-07  0.1214175E-09 -0.6758890E-04 -0.4057944E-05  0.7950640E-11  0.4269204E-11  0.3673511E+00  0.2745666E-03  0.5446889E-06  0.7080468E-09
  0.1100000E+01  0.6582891E+01  0.5036110E-02 -0.1405861E-06 -0.5684086E-09 -0.6716599E-04 -0.4384689E-05 -0.3433707E-09 -0.2837585E-11  0.3673248E+00  0.3769451E-03  0.4555083E-07  0.4899928E-09
  0.1200000E+01  0.6594682E+01  0.6848916E-02 -0.2270281E-07 -0.7104291E-09 -0.6659406E-04 -0.4740701E-05 -0.7020913E-09 -0.3670441E-11  0.3673957E+00  0.5064738E-03  0.4958600E-06 -0.2317241E-09
  0.1300000E+01  0.6607073E+01  0.9160986E-02 -0.1592889E-07 -0.4346959E-09 -0.6674450E-04 -0.4981506E-05 -0.3893767E-09  0.5839273E-11  0.3673460E+00  0.6683962E-03  0.5331265E-06 -0.7491558E-09
  0.1400000E+01  0.6621014E+01  0.1209114E-01  0.3097011E-07 -0.1599932E-08 -0.6752076E-04 -0.5188958E-05  0.1938296E-08 -0.1161549E-10  0.3673623E+00  0.8692513E-03 -0.3774346E-06  0.2175699E-08
  0.1500000E+01  0.6635993E+01  0.1578509E-01 -0.4478898E-07  0.1595737E-08 -0.6777810E-04 -0.5167924E-05 -0.1300908E-08  0.2162085E-10  0.3673234E+00  0.1116641E-02  0.1467200E-08 -0.3668860E-08
  0.1600000E+01  0.6652614E+01  0.2042647E-01  0.7253766E-07  0.1469471E-08 -0.6820747E-04 -0.4961924E-05 -0.3896898E-09  0.1197979E-10  0.3672877E+00  0.1419575E-02  0.1969357E-06  0.3994134E-08
  0.1700000E+01  0.6671509E+01  0.2624486E-01 -0.9045652E-07 -0.4482843E-09 -0.6900961E-04 -0.5014129E-05  0.9359687E-09  0.1837459E-10  0.3674006E+00  0.1789438E-02  0.1739299E-06  0.6112171E-08
  0.1800000E+01  0.6690336E+01  0.3351854E-01  0.1422904E-06  0.3231617E-08 -0.7100092E-04 -0.4719065E-05  0.2497889E-09 -0.2687494E-10  0.3672298E+00  0.2238352E-02  0.5807727E-06  0.4867086E-08
  0.1900000E+01  0.6711808E+01  0.4259972E-01  0.4843605E-07  0.1545084E-08 -0.7175034E-04 -0.4330786E-05  0.5383731E-08 -0.1027150E-10  0.3671887E+00  0.2781220E-02  0.3746080E-06  0.1591607E-07
  0.2000000E+01  0.6735175E+01  0.5393780E-01 -0.5111178E-07  0.1027843E-08 -0.7463431E-04 -0.3817174E-05 -0.2069386E-08  0.3362498E-11  0.3671621E+00  0.3436396E-02  0.4256347E-06  0.2068830E-07
  0.2100000E+01  0.6760110E+01  0.6805881E-01  0.8224379E-07 -0.3258356E-08 -0.7599474E-04 -0.3406344E-05  0.4159850E-09 -0.1019135E-09  0.3670800E+00  0.4223555E-02 -0.1864975E-06 -0.1268210E-07
  0.2200000E+01  0.6786952E+01  0.8561563E-01 -0.7880590E-07 -0.2062416E-08 -0.7785096E-04 -0.2716650E-05 -0.3027695E-09  0.9557789E-10  0.3669430E+00  0.5164665E-02  0.1084895E-05  0.2933249E-07
  0.2300000E+01  0.6816223E+01  0.1074465E+00 -0.2280467E-07  0.3869900E-10 -0.8131604E-04 -0.2699419E-05 -0.8910509E-09  0.2125562E-09  0.3668136E+00  0.6283696E-02  0.7327938E-06  0.1642772E-07
  0.2400000E+01  0.6847540E+01  0.1345216E+00 -0.1057560E-07 -0.3105015E-08 -0.8370131E-04 -0.2467482E-05 -0.3233636E-10  0.1212588E-10  0.3666541E+00  0.7611642E-02  0.1457836E-06 -0.4445915E-07
  0.2500000E+01  0.6880832E+01  0.1679660E+00  0.1695662E-07 -0.8412826E-10 -0.8644191E-04 -0.2137452E-05 -0.5470778E-08  0.9126856E-10  0.3663923E+00  0.9172121E-02  0.1623244E-06  0.5843667E-07
  0.2600000E+01  0.6916087E+01  0.2091467E+00 -0.2587331E-07  0.1522858E-07 -0.8974609E-04 -0.2792004E-05 -0.6685160E-09  0.2380636E-10  0.3660113E+00  0.1098934E-01  0.4869008E-06  0.3325428E-07
  0.2700000E+01  0.6954072E+01  0.2597590E+00  0.8296047E-07  0.1993669E-07 -0.9375461E-04 -0.3056701E-05  0.7496886E-09  0.2341997E-09  0.3656173E+00  0.1309078E-01  0.9417395E-06  0.8697291E-08
  0.2800000E+01  0.6994079E+01  0.3215149E+00 -0.9646101E-07 -0.1268199E-08 -0.9752680E-04 -0.3812672E-05 -0.4207113E-08 -0.8967200E-10  0.3651252E+00  0.1549589E-01  0.2591125E-06 -0.1666212E-06
  0.2900000E+01  0.7035685E+01  0.3963087E+00 -0.1351546E-06  0.1345143E-08 -0.1016766E-03 -0.5232558E-05  0.1767514E-08 -0.1107721E-09  0.3644261E+00  0.1820320E-01  0.2278144E-06  0.9020358E-07
  0.3000000E+01  0.7079296E+01  0.4864677E+00  0.6620030E-07 -0.8058578E-08 -0.1065902E-03 -0.8559471E-05  0.1711922E-08  0.2514768E-09  0.3635706E+00  0.2119623E-01  0.1597280E-06  0.5211243E-07
  0.3100000E+01  0.7124799E+01  0.5944997E+00  0.7697963E-07  0.1858429E-07 -0.1125019E-03 -0.1357750E-04 -0.3878103E-08  0.3563676E-09  0.3625928E+00  0.2447389E-01 -0.4882885E-06 -0.2406709E-07
  0.3200000E+01  0.7172113E+01  0.7225714E+00 -0.8792995E-08  0.2403685E-07 -0.1190263E-03 -0.1971226E-04 -0.1136339E-08 -0.7197403E-09  0.3614951E+00  0.2797119E-01 -0.1555088E-05 -0.3109911E-06
  0.3300000E+01  0.7218295E+01  0.8729134E+00  0.7333438E-07  0.2472498E-07 -0.1266016E-03 -0.2740276E-04  0.5329401E-08 -0.4001664E-09  0.3598905E+00  0.3159716E-01 -0.3905882E-06 -0.1806300E-06
  0.3400000E+01  0.7265940E+01  0.1048569E+01  0.1515873E-06  0.3732075E-07 -0.1330345E-03 -0.3935656E-04  0.2658555E-08 -0.4694559E-09  0.3581195E+00  0.3523162E-01  0.1724796E-06  0.8534222E-07
  0.3500000E+01  0.7314591E+01  0.1252215E+01 -0.3814785E-07 -0.3134846E-07 -0.1381697E-03 -0.5205783E-04 -0.2743298E-08 -0.1291095E-09  0.3562331E+00  0.3878801E-01  0.9963401E-06  0.1249566E-06
  0.3600000E+01  0.7360650E+01  0.1485492E+01  0.8043207E-07  0.1578810E-07 -0.1436510E-03 -0.6789897E-04  0.3544451E-08  0.1717019E-08  0.3538287E+00  0.4203445E-01  0.5729338E-06  0.2766951E-06
  0.3700000E+01  0.7405810E+01  0.1750469E+01  0.2052147E-06  0.1938988E-07 -0.1495354E-03 -0.8601925E-04 -0.3861816E-08  0.1260272E-08  0.3511259E+00  0.4475282E-01 -0.6059345E-06 -0.6050915E-06
  0.3800000E+01  0.7449233E+01  0.2049859E+01  0.1327353E-06 -0.1113411E-06 -0.1558499E-03 -0.1092455E-03 -0.1721843E-08  0.5143435E-08  0.3481069E+00  0.4668650E-01 -0.2894535E-06 -0.7075059E-07
  0.3900000E+01  0.7490622E+01  0.2386194E+01  0.1348162E-06 -0.4259273E-07 -0.1609457E-03 -0.1374767E-03 -0.7655521E-10 -0.1304167E-08  0.3448434E+00  0.4757737E-01 -0.8550343E-06 -0.1083650E-05
  0.4000000E+01  0.7528455E+01  0.2760224E+01 -0.2497145E-06  0.6936170E-07 -0.1685762E-03 -0.1724063E-03 -0.1006991E-08  0.1927572E-07  0.3412429E+00  0.4710419E-01  0.1728737E-06  0.6030000E-06
  0.4100000E+01  0.7562057E+01  0.3172631E+01  0.3624154E-07 -0.4562716E-07 -0.1811408E-03 -0.2143503E-03 -0.5267750E-08 -0.5191737E-08  0.3373090E+00  0.4483533E-01 -0.1015373E-05  0.2116074E-07
  0.4200000E+01  0.7590816E+01  0.3624169E+01  0.1254011E-07  0.1762186E-06 -0.1912340E-03 -0.2608185E-03 -0.1354039E-08  0.4951540E-09  0.3330797E+00  0.4043479E-01  0.7406041E-06 -0.7193431E-06
  0.4300000E+01  0.7614159E+01  0.4116943E+01  0.3452806E-07  0.7242853E-08 -0.1999043E-03 -0.3206432E-03  0.5516585E-08 -0.5582958E-08  0.3286212E+00  0.3337715E-01 -0.2964498E-08 -0.1795308E-05
  0.4400000E+01  0.7631613E+01  0.4650554E+01 -0.8034112E-07  0.2062516E-06 -0.2077945E-03 -0.3841386E-03 -0.4478053E-08  0.6281670E-08  0.3240399E+00  0.2340851E-01 -0.1706044E-07  0.6308588E-07
  0.4500000E+01  0.7642055E+01  0.5223202E+01  0.1500739E-06 -0.3909372E-07 -0.2140260E-03 -0.4593922E-03  0.4924873E-08 -0.8704137E-10  0.3193401E+00  0.9985930E-02  0.1463947E-05 -0.1315024E-05
  0.4600000E+01  0.7644665E+01  0.5832942E+01  0.3659807E-07  0.2840548E-06 -0.2141420E-03 -0.5324172E-03 -0.3435281E-09 -0.2070080E-08  0.3145404E+00 -0.7401597E-02 -0.5051349E-06  0.5266953E-06
  0.4700000E+01  0.7639008E+01  0.6477484E+01  0.2181696E-07  0.4901286E-06 -0.2180661E-03 -0.6238664E-03  0.3312991E-08 -0.8785472E-08  0.3097628E+00 -0.2914030E-01  0.2553947E-06 -0.2534587E-05
  0.4800000E+01  0.7624319E+01  0.7154987E+01 -0.8374627E-07 -0.2570101E-06 -0.2205273E-03 -0.7219837E-03  0.1063583E-07 -0.4574688E-09  0.3050685E+00 -0.5576433E-01 -0.2088087E-06 -0.2851738E-06
  0.4900000E+01  0.7600496E+01  0.7861905E+01  0.8672941E-08  0.4210524E-07 -0.2207759E-03 -0.8388484E-03 -0.9246852E-08 -0.6837218E-10  0.3006690E+00 -0.8748545E-01  0.5789579E-06  0.9474118E-06
  0.5000000E+01  0.7566922E+01  0.8592327E+01 -0.1579247E-07 -0.3222885E-06 -0.2194097E-03 -0.9595018E-03  0.1881011E-09 -0.2070418E-08  0.2965922E+00 -0.1246588E+00 -0.9627406E-06 -0.1477709E-05
  0.5100000E+01  0.7523378E+01  0.9340320E+01 -0.8596544E-08  0.3521862E-06 -0.2188561E-03 -0.1098740E-02 -0.6781545E-09 -0.4815360E-08  0.2929843E+00 -0.1675941E+00  0.4143275E-06  0.7318273E-06
  0.5200000E+01  0.7469773E+01  0.1009902E+02 -0.1301160E-06  0.2673420E-06 -0.2130760E-03 -0.1234438E-02  0.2763208E-08  0.1990295E-07  0.2899384E+00 -0.2164947E+00  0.9280230E-06 -0.4039657E-06
  0.5300000E+01  0.7406091E+01  0.1086141E+02 -0.4317189E-07  0.3251211E-06 -0.2078581E-03 -0.1388655E-02 -0.2220570E-08 -0.1825324E-07  0.2875260E+00 -0.2714338E+00 -0.4529621E-06 -0.7176465E-07
  0.5400000E+01  0.7332177E+01  0.1162056E+02 -0.3577952E-07  0.3645342E-06 -0.1952848E-03 -0.1540132E-02 -0.2132378E-08 -0.5021641E-08  0.2859431E+00 -0.3324557E+00  0.8933451E-06  0.2525571E-05
  0.5500000E+01  0.7249089E+01  0.1236804E+02  0.9243013E-07  0.5946240E-06 -0.1814504E-03 -0.1702748E-02 -0.3310957E-09 -0.4339611E-07  0.2853176E+00 -0.3992307E+00  0.4952503E-06 -0.1950741E-05
  0.5600000E+01  0.7156990E+01  0.1309448E+02  0.3820605E-07  0.9713694E-07 -0.1662960E-03 -0.1862131E-02  0.3047766E-08 -0.1950121E-07  0.2857714E+00 -0.4714797E+00  0.5383574E-06 -0.1677625E-05
  0.5700000E+01  0.7057332E+01  0.1379144E+02  0.2216384E-06  0.2724773E-07 -0.1480330E-03 -0.2021885E-02  0.3560505E-09  0.3348629E-07  0.2873186E+00 -0.5488523E+00  0.2995698E-06  0.4600234E-05
  0.5800000E+01  0.6949969E+01  0.1444928E+02 -0.9162250E-08 -0.7658135E-06 -0.1239619E-03 -0.2162982E-02 -0.4581723E-08  0.2206122E-07  0.2901391E+00 -0.6307660E+00 -0.7192337E-06  0.5108115E-05
  0.5900000E+01  0.6836856E+01  0.1506029E+02  0.4465255E-07 -0.3052191E-06 -0.9828398E-04 -0.2295319E-02  0.1356143E-08  0.2080582E-07  0.2942410E+00 -0.7166240E+00 -0.7526242E-07  0.3828296E-05
  0.6000000E+01  0.6718801E+01  0.1561661E+02 -0.5287438E-07  0.3263704E-06 -0.6875994E-04 -0.2416414E-02 -0.1106851E-08  0.4474932E-08  0.2996685E+00 -0.8056703E+00 -0.1669039E-06 -0.1015369E-04
  0.6100000E+01  0.6597270E+01  0.1611127E+02 -0.1670469E-07 -0.1152192E-06 -0.3659564E-04 -0.2523311E-02  0.3425568E-09 -0.2025049E-07  0.3064726E+00 -0.8969700E+00  0.8138814E-06  0.7843878E-06
  0.6200000E+01  0.6474158E+01  0.1653803E+02  0.6251639E-07 -0.4310350E-06 -0.4252086E-05 -0.2622816E-02  0.2993843E-08  0.7507666E-07  0.3146494E+00 -0.9895176E+00  0.2670211E-06  0.5392886E-05
  0.6300000E+01  0.6350541E+01  0.1689137E+02  0.6236041E-07  0.4794252E-06  0.2992824E-04 -0.2692824E-02 -0.7332844E-09 -0.2615597E-07  0.3242531E+00 -0.1082236E+01 -0.7626743E-06 -0.6357642E-05
  0.6400000E+01  0.6227458E+01  0.1716676E+02  0.2476190E-07  0.3980938E-06  0.6491717E-04 -0.2745009E-02 -0.8274709E-09 -0.2858954E-08  0.3352657E+00 -0.1174002E+01  0.5486768E-06  0.2623725E-05
  0.6500000E+01  0.6107745E+01  0.1736282E+02  0.4931098E-07  0.1163426E-06  0.9994774E-04 -0.2766142E-02  0.1227500E-08  0.6275268E-07  0.3474767E+00 -0.1263965E+01  0.3272037E-06 -0.5732162E-06
  0.6600000E+01  0.5991764E+01  0.1747707E+02 -0.4525646E-08  0.6528498E-06  0.1364658E-03 -0.2724779E-02  0.9283073E-09  0.1422659E-07  0.3609777E+00 -0.1350979E+01 -0.7438457E-07  0.3445266E-05
  0.6700000E+01  0.5881174E+01  0.1750983E+02 -0.1133230E-07  0.1847584E-07  0.1707244E-03 -0.2668714E-02  0.3577955E-09  0.4351643E-07  0.3756121E+00 -0.1434071E+01  0.2432221E-06 -0.4492628E-05
  0.6800000E+01  0.5776979E+01  0.1746207E+02 -0.6014307E-07 -0.1397909E-05  0.2034831E-03 -0.2573623E-02 -0.7548212E-09  0.4006425E-07  0.3913246E+00 -0.1512158E+01 -0.1216768E-06 -0.2413940E-05
  0.6900000E+01  0.5681210E+01  0.1733722E+02 -0.2294473E-07  0.3578549E-06  0.2333165E-03 -0.2469812E-02  0.5887657E-10 -0.4165072E-07  0.4080351E+00 -0.1584289E+01  0.3584795E-06 -0.3074769E-05
  0.7000000E+01  0.5594682E+01  0.1713881E+02 -0.3729292E-07  0.3233145E-06  0.2578245E-03 -0.2338849E-02  0.2959406E-09  0.3745271E-08  0.4255837E+00 -0.1649590E+01  0.7034242E-07  0.5801149E-06
  0.7100000E+01  0.5517997E+01  0.1687140E+02  0.6086702E-07 -0.3968984E-06  0.2799229E-03 -0.2183575E-02 -0.1659449E-08 -0.5607451E-08  0.4439449E+00 -0.1707175E+01  0.2585850E-06 -0.8005718E-06
  0.7200000E+01  0.5452302E+01  0.1654140E+02  0.2922025E-07  0.1127366E-05  0.2987591E-03 -0.1979375E-02 -0.3976397E-09  0.4551642E-07  0.4629327E+00 -0.1756442E+01  0.1310520E-06 -0.5476927E-07
  0.7300000E+01  0.5398513E+01  0.1615590E+02 -0.3434252E-08  0.2645633E-06  0.3121373E-03 -0.1770014E-02 -0.2490528E-08  0.1251939E-07  0.4824257E+00 -0.1796837E+01  0.4133994E-08  0.1320157E-06
  0.7400000E+01  0.5356934E+01  0.1572251E+02  0.7867493E-07  0.5637266E-06  0.3217916E-03 -0.1541718E-02  0.2900137E-08  0.3898801E-07  0.5023847E+00 -0.1827816E+01 -0.1876930E-07 -0.7002235E-05
  0.7500000E+01  0.5327649E+01  0.1524941E+02 -0.2019806E-07 -0.7337439E-06  0.3249449E-03 -0.1312554E-02 -0.1224903E-08  0.2829984E-07  0.5227092E+00 -0.1848888E+01  0.1333925E-06  0.4705934E-05
  0.7600000E+01  0.5311791E+01  0.1474658E+02 -0.1049921E-07  0.3177381E-06  0.3231376E-03 -0.1088721E-02 -0.1952933E-09  0.3965336E-07  0.5432465E+00 -0.1859631E+01 -0.5779555E-07  0.7775890E-05
  0.7700000E+01  0.5309054E+01  0.1422343E+02  0.9575888E-07 -0.4526810E-07  0.3182971E-03 -0.8713608E-03  0.4293878E-08 -0.8937256E-09  0.5640215E+00 -0.1859532E+01  0.4054198E-07 -0.3375590E-05
  0.7800000E+01  0.5319862E+01  0.1369085E+02 -0.5755282E-08 -0.1118024E-07  0.3092166E-03 -0.6620823E-03 -0.3907921E-08  0.8933394E-08  0.5849347E+00 -0.1848224E+01  0.1472258E-06 -0.2494661E-05
  0.7900000E+01  0.5344341E+01  0.1316008E+02 -0.4164031E-07  0.7162016E-07  0.2965474E-03 -0.4741267E-03 -0.1222578E-08  0.4641443E-07  0.6058967E+00 -0.1825318E+01  0.1532463E-06 -0.1185779E-04
  0.8000000E+01  0.5382119E+01  0.1264289E+02 -0.6608025E-07 -0.3526220E-06  0.2813934E-03 -0.2870897E-03 -0.1836762E-08 -0.4649948E-08  0.6268820E+00 -0.1790404E+01 -0.4274324E-07  0.2469112E-05
  0.8100000E+01  0.5433170E+01  0.1215204E+02  0.3841706E-08 -0.3617446E-06  0.2665333E-03 -0.1210859E-03  0.1040791E-08  0.3811671E-08  0.6478329E+00 -0.1743092E+01  0.5969355E-08 -0.3969022E-05
  0.8200000E+01  0.5497556E+01  0.1170131E+02  0.2293382E-07  0.2924673E-06  0.2485948E-03 -0.2876671E-05 -0.1077100E-08  0.7217814E-08  0.6687247E+00 -0.1682889E+01  0.1107388E-06 -0.9497524E-06
  0.8300001E+01  0.5574632E+01  0.1130514E+02 -0.1058652E-06  0.1369052E-06  0.2312217E-03  0.7926691E-04  0.3123102E-09 -0.4187472E-07  0.6895477E+00 -0.1609119E+01 -0.1853664E-09  0.2451311E-05
  0.8400001E+01  0.5663894E+01  0.1097897E+02  0.1198641E-06  0.5972150E-06  0.2122318E-03  0.1667194E-03 -0.8298673E-09 -0.1730291E-08  0.7101819E+00 -0.1521046E+01 -0.2786539E-06  0.1912420E-05
  0.8500001E+01  0.5765687E+01  0.1074142E+02  0.9065843E-08  0.2842735E-06  0.1946217E-03  0.2319709E-03 -0.2515864E-08  0.7918550E-08  0.7307469E+00 -0.1417624E+01  0.2491792E-06  0.2970430E-06
  0.8600000E+01  0.5878397E+01  0.1060971E+02  0.1215085E-07 -0.1325301E-06  0.1765153E-03  0.2902344E-03  0.3360365E-09  0.4957970E-08  0.7510787E+00 -0.1297814E+01 -0.1545720E-06 -0.4295407E-05
  0.8700000E+01  0.6001784E+01  0.1060503E+02 -0.8018105E-07 -0.8287661E-06  0.1626962E-03  0.3224522E-03  0.8339949E-08  0.1735280E-08  0.7711860E+00 -0.1160248E+01  0.1418940E-06 -0.2900803E-05
  0.8800001E+01  0.6134453E+01  0.1074940E+02  0.8835923E-07  0.7588170E-07  0.1443245E-03  0.3141453E-03 -0.3532991E-08  0.3402466E-07  0.7909608E+00 -0.1003425E+01  0.3704326E-06 -0.1463901E-05
  0.8900001E+01  0.6275375E+01  0.1106695E+02  0.1009903E-07  0.7071662E-07  0.1342209E-03  0.2970568E-03 -0.7881630E-08  0.5607705E-07  0.8103048E+00 -0.8256566E+00 -0.1804362E-06  0.3737131E-06
  0.9000001E+01  0.6422033E+01  0.1158302E+02  0.2162415E-07 -0.1524213E-06  0.1199290E-03  0.2801052E-03 -0.3851798E-08  0.2195126E-08  0.8290790E+00 -0.6250125E+00 -0.3821634E-06  0.6798903E-06
  0.9100000E+01  0.6572693E+01  0.1232479E+02 -0.4059984E-08 -0.2017787E-06  0.1079737E-03  0.2600334E-03  0.1229496E-08 -0.4580151E-08  0.8470867E+00 -0.3993944E+00  0.1044949E-06  0.4174044E-06
  0.9200000E+01  0.6724408E+01  0.1331960E+02 -0.1618173E-07  0.9605719E-08  0.9975288E-04  0.2279161E-03  0.2981282E-08 -0.8159199E-09  0.8640922E+00 -0.1466068E+00  0.5074730E-07  0.2700661E-06
  0.9300001E+01  0.6873875E+01  0.1459456E+02 -0.4909816E-07 -0.2061119E-06  0.9358926E-04  0.1865918E-03  0.1073971E-07  0.4322438E-09  0.8797589E+00  0.1355297E+00  0.1026267E-06  0.2207519E-06
  0.9400001E+01  0.7016047E+01  0.1617300E+02 -0.8819916E-07 -0.3217938E-07  0.8691003E-04  0.1406313E-03 -0.2453829E-08  0.6157669E-08  0.8936918E+00  0.4488680E+00  0.4441251E-06 -0.2508339E-06
  0.9500001E+01  0.7142999E+01  0.1807122E+02  0.4711910E-07  0.6096526E-07 -0.2935585E-05 -0.1505819E-03  0.6318928E-08  0.9186963E-10  0.9049264E+00  0.7941180E+00  0.1192529E-06 -0.9347144E-06
  0.9600000E+01  0.7254678E+01  0.2030582E+02 -0.9572250E-07  0.9366777E-07 -0.6741289E-05 -0.2210810E-03 -0.5200871E-08  0.2413724E-08  0.9138157E+00  0.1173020E+01  0.4649394E-07  0.6049137E-06
  0.9700001E+01  0.7341867E+01  0.2287345E+02 -0.1877197E-07 -0.1021458E-05 -0.8089194E-05 -0.3018249E-03  0.3347015E-08 -0.1674351E-08  0.9193231E+00  0.1584352E+01  0.2279020E-06 -0.4161594E-06
  0.9800001E+01  0.7397326E+01  0.2575647E+02 -0.2018351E-07  0.6212751E-06 -0.8901811E-05 -0.3658355E-03  0.1071039E-07  0.4030003E-07  0.9207435E+00  0.2025660E+01  0.8751829E-07  0.4772102E-07
  0.9900001E+01  0.7414104E+01  0.2891743E+02 -0.3667083E-08 -0.1116496E-06 -0.1156616E-04 -0.4171549E-03 -0.1680761E-08 -0.1539004E-07  0.9174189E+00  0.2492518E+01  0.2631400E-06  0.6790343E-06
  0.1000000E+02  0.7385943E+01  0.3229624E+02 -0.3163586E-07  0.9585348E-06 -0.1077804E-04 -0.4728510E-03 -0.3246232E-08  0.1920242E-09  0.9087774E+00  0.2978128E+01 -0.2788715E-07 -0.1345267E-05
  0.1010000E+02  0.7307819E+01  0.3580910E+02  0.1636363E-07 -0.1984154E-06 -0.1052348E-04 -0.5245241E-03 -0.1262448E-07  0.1366243E-07  0.8943582E+00  0.3473357E+01  0.7881482E-07 -0.1530178E-05
  0.1020000E+02  0.7177065E+01  0.3935246E+02 -0.7566996E-08  0.4412810E-06 -0.8627771E-05 -0.5581017E-03 -0.3181914E-08 -0.6964508E-07  0.8739555E+00  0.3967115E+01  0.1882194E-06 -0.4296438E-05
  0.1030000E+02  0.6993833E+01  0.4280897E+02 -0.1113949E-07  0.3257145E-05 -0.7601118E-05 -0.6090887E-03  0.8222845E-10 -0.8022635E-08  0.8476635E+00  0.4447014E+01 -0.5163560E-07  0.4899100E-05
  0.1040000E+02  0.6761409E+01  0.4605707E+02 -0.2875458E-07  0.6674091E-07 -0.6419621E-05 -0.6384850E-03 -0.3477563E-09  0.9707941E-07  0.8158839E+00  0.4900242E+01 -0.1835082E-06  0.3246454E-06
  0.1050000E+02  0.6485960E+01  0.4898165E+02  0.4185131E-07  0.7271520E-06 -0.6077881E-05 -0.6718318E-03 -0.5777232E-09 -0.4302842E-08  0.7793199E+00  0.5314858E+01 -0.1228517E-06  0.1522562E-05
  0.1060000E+02  0.6176345E+01  0.5148664E+02  0.3796595E-07 -0.7851341E-07 -0.4770228E-05 -0.7089619E-03 -0.1079141E-09  0.8431189E-07  0.7389379E+00  0.5680908E+01  0.1248161E-07 -0.6660123E-05
  0.1070000E+02  0.5843067E+01  0.5350388E+02 -0.9299583E-07 -0.7126641E-06 -0.4157195E-05 -0.7302549E-03  0.2532910E-09  0.6572142E-07  0.6958755E+00  0.5991413E+01  0.5492267E-07  0.4189362E-05
  0.1080000E+02  0.5497294E+01  0.5499639E+02 -0.2404113E-07 -0.5642069E-07 -0.2288157E-05 -0.7841138E-03  0.2683723E-09  0.2419334E-07  0.6513212E+00  0.6242759E+01  0.1413724E-06 -0.5751418E-06
  0.1090000E+02  0.5149800E+01  0.5595984E+02 -0.6525715E-07 -0.2682195E-06 -0.1323296E-05 -0.8170628E-03  0.2512648E-09  0.8595661E-08  0.6064226E+00  0.6434680E+01 -0.1191246E-06 -0.1138172E-05
  0.1100000E+02  0.4809654E+01  0.5641463E+02  0.1459193E-07 -0.7971540E-07 -0.1141645E-06 -0.8525710E-03  0.4803997E-09 -0.6230393E-07  0.5621179E+00  0.6569386E+01  0.4281742E-06 -0.1168344E-05
  0.1110000E+02  0.4484337E+01  0.5640337E+02 -0.3267633E-07 -0.4264294E-06  0.2723683E-05 -0.8841216E-03  0.1981033E-08 -0.5952689E-07  0.5191773E+00  0.6651328E+01  0.3756959E-06  0.3025286E-06
  0.1120000E+02  0.4179382E+01  0.5598118E+02 -0.2910383E-07 -0.7593306E-06  0.4413652E-05 -0.9345520E-03 -0.6068158E-08 -0.6584211E-08  0.4781832E+00  0.6686202E+01  0.3623760E-06 -0.3655486E-05
  0.1130000E+02  0.3898234E+01  0.5520828E+02 -0.3995228E-07  0.5965762E-06  0.7460425E-05 -0.9757474E-03  0.4002124E-08 -0.1705278E-07  0.4394688E+00  0.6679948E+01 -0.6484667E-06  0.4631724E-06
  0.1140000E+02  0.3642714E+01  0.5414511E+02 -0.3707100E-07  0.2460176E-06  0.9740523E-05 -0.9905087E-03  0.1148615E-08 -0.3730049E-07  0.4032207E+00  0.6638525E+01 -0.2291963E-06  0.4728462E-06
  0.1150000E+02  0.3413380E+01  0.5284895E+02  0.1113367E-06 -0.4516696E-06  0.1323726E-04 -0.1033919E-02 -0.3040173E-08  0.9410996E-08  0.3694924E+00  0.6567430E+01  0.1533061E-06 -0.1345797E-05
  0.1160000E+02  0.3209804E+01  0.5136994E+02 -0.1443550E-07 -0.2687331E-06  0.1743456E-04 -0.1064836E-02  0.5468914E-10 -0.3552157E-08  0.3382452E+00  0.6471371E+01  0.7091861E-06 -0.4291790E-06
  0.1170000E+02  0.3030820E+01  0.4974974E+02  0.1095977E-06  0.1121145E-06  0.2205798E-04 -0.1081517E-02  0.5588171E-08 -0.5101147E-08  0.3093629E+00  0.6353913E+01 -0.3923031E-06 -0.1429484E-06
  0.1180000E+02  0.2874959E+01  0.4802246E+02 -0.1878652E-07  0.4636240E-08  0.2645923E-04 -0.1102635E-02  0.6996554E-08  0.1351812E-08  0.2827069E+00  0.6217823E+01 -0.3632750E-06 -0.2350108E-06
  0.1190000E+02  0.2740624E+01  0.4621515E+02 -0.7642666E-07  0.3243433E-06  0.3085776E-04 -0.1098483E-02 -0.3572638E-09 -0.1472016E-08  0.2581427E+00  0.6065000E+01  0.2410914E-06 -0.6889521E-06
  0.1200000E+02  0.2626299E+01  0.4434901E+02 -0.5989568E-07  0.1431035E-06  0.3531062E-04 -0.1108093E-02  0.1305556E-08  0.2787480E-08  0.2355545E+00  0.5896790E+01 -0.2874461E-06  0.1200563E-05
  0.1210000E+02  0.2530637E+01  0.4244019E+02  0.1029548E-07  0.1269524E-06  0.3978515E-04 -0.1109508E-02  0.4813906E-08  0.3997544E-08  0.2148630E+00  0.5713787E+01  0.4054859E-06 -0.1332543E-05
  0.1220000E+02  0.2452627E+01  0.4050238E+02 -0.1192529E-07 -0.3994501E-07  0.4351760E-04 -0.1091816E-02 -0.5619569E-09 -0.1785901E-07  0.1960514E+00  0.5516444E+01  0.1579550E-06  0.2143324E-05
  0.1230000E+02  0.2391276E+01  0.3854502E+02 -0.8119241E-07  0.1349126E-06  0.4803155E-04 -0.1093229E-02  0.2212972E-08 -0.6110350E-08  0.1791137E+00  0.5304642E+01  0.2447347E-06 -0.2157323E-06
  0.1240000E+02  0.2345934E+01  0.3657807E+02  0.3194873E-07 -0.6504997E-07  0.5200584E-04 -0.1068776E-02 -0.2291559E-08 -0.5322682E-08  0.1641107E+00  0.5078441E+01 -0.6370874E-06  0.1570892E-05
  0.1250000E+02  0.2316259E+01  0.3461328E+02 -0.8402276E-07  0.1649369E-06  0.5522459E-04 -0.1035734E-02  0.3879658E-08 -0.1468043E-07  0.1511681E+00  0.4838500E+01  0.1035889E-06  0.1427245E-05
  0.1260000E+02  0.2301965E+01  0.3266386E+02 -0.4733010E-07  0.4520596E-06  0.5901332E-04 -0.1017201E-02 -0.9910732E-09  0.4038735E-08  0.1404431E+00  0.4585874E+01  0.1592412E-06  0.2713473E-06
  0.1270000E+02  0.2302794E+01  0.3074670E+02 -0.1386070E-07 -0.2386120E-06  0.6234801E-04 -0.9864694E-03 -0.1501703E-08  0.7982818E-07  0.1321182E+00  0.4322513E+01  0.1305364E-06 -0.3925876E-05
  0.1280000E+02  0.2318380E+01  0.2888254E+02 -0.3994501E-08 -0.1389999E-07  0.6448753E-04 -0.9581429E-03  0.2963603E-09  0.9963472E-08  0.1263641E+00  0.4051675E+01  0.3339192E-06 -0.1546759E-05
  0.1290000E+02  0.2348099E+01  0.2709612E+02 -0.1459557E-07 -0.3404766E-07  0.6744455E-04 -0.9218538E-03 -0.7683336E-09 -0.2830247E-07  0.1233186E+00  0.3777836E+01 -0.1450925E-06 -0.3167200E-05
  0.1300000E+02  0.2390930E+01  0.2541405E+02  0.3477908E-08 -0.2870611E-06  0.6975855E-04 -0.8812595E-03 -0.2707199E-09 -0.1925726E-07  0.1230409E+00  0.3506604E+01 -0.8247264E-06 -0.2044625E-05
  0.1310000E+02  0.2445266E+01  0.2386305E+02  0.2494198E-07  0.3975829E-06  0.7202509E-04 -0.8489143E-03  0.6514767E-10  0.1364885E-07  0.1254697E+00  0.3244272E+01  0.9296059E-08  0.3110181E-05
  0.1320000E+02  0.2508990E+01  0.2246669E+02  0.8730422E-07  0.3885525E-07  0.7433024E-04 -0.8065130E-03  0.3325979E-09  0.2219703E-08  0.1304063E+00  0.2997435E+01  0.2614760E-06 -0.4009832E-06
  0.1330000E+02  0.2579529E+01  0.2124319E+02  0.2162415E-07  0.4389815E-06  0.7596274E-04 -0.7646789E-03  0.2943834E-09 -0.9941287E-08  0.1375163E+00  0.2772272E+01  0.2186938E-06 -0.1622582E-05
  0.1340000E+02  0.2654096E+01  0.2020238E+02  0.2215529E-07 -0.1389039E-06  0.7767294E-04 -0.7124116E-03 -0.8798806E-10  0.3626739E-07  0.1463501E+00  0.2573846E+01  0.6993400E-07 -0.3488935E-06
  0.1350000E+02  0.2729883E+01  0.1934479E+02 -0.2433080E-07 -0.1759033E-06  0.7927655E-04 -0.6573419E-03  0.1486382E-08 -0.1058981E-07  0.1563850E+00  0.2405514E+01 -0.2901345E-06 -0.1695028E-05
  0.1360000E+02  0.2804343E+01  0.1866173E+02  0.7707422E-07 -0.1094420E-06  0.7965193E-04 -0.6051845E-03 -0.6791369E-09 -0.5535068E-08  0.1670860E+00  0.2268717E+01  0.1074689E-06 -0.6567203E-06
  0.1370000E+02  0.2875453E+01  0.1813691E+02 -0.7566996E-09  0.1644356E-06  0.7968987E-04 -0.5495905E-03 -0.6048031E-09 -0.2696462E-07  0.1779578E+00  0.2162965E+01  0.2415260E-07  0.7073608E-06
  0.1380000E+02  0.2941519E+01  0.1774759E+02 -0.1428270E-07  0.1329530E-06  0.7960333E-04 -0.4839425E-03 -0.9662514E-09  0.4793307E-08  0.1885449E+00  0.2085981E+01 -0.1338170E-06  0.3697760E-06
  0.1390000E+02  0.3001534E+01  0.1746904E+02  0.1240915E-07  0.5346292E-07  0.7846109E-04 -0.4282072E-03  0.8642054E-10 -0.9643469E-08  0.1985064E+00  0.2034420E+01 -0.1781741E-06  0.8308307E-07
  0.1400000E+02  0.3055115E+01  0.1727667E+02  0.5779657E-07 -0.3052083E-07  0.7751002E-04 -0.3720723E-03 -0.2979610E-09 -0.2737669E-09  0.2076157E+00  0.2004325E+01 -0.1573610E-06  0.8264465E-07
  0.1410000E+02  0.3102245E+01  0.1714731E+02  0.1723311E-07 -0.6913351E-07  0.7564411E-04 -0.3199053E-03 -0.5063789E-09  0.6781753E-08  0.2157351E+00  0.1991501E+01  0.5042557E-07  0.1418815E-06
  0.1420000E+02  0.3143220E+01  0.1706062E+02  0.3995592E-07  0.1268236E-07  0.7434796E-04 -0.2733973E-03  0.8354567E-09  0.1488821E-07  0.2228124E+00  0.1991862E+01 -0.2064658E-06 -0.1860956E-07
  0.1430000E+02  0.3178592E+01  0.1699985E+02  0.6391929E-08  0.2095230E-07  0.7207122E-04 -0.2259815E-03 -0.3371757E-09 -0.2596423E-08  0.2288612E+00  0.2001747E+01  0.9223626E-07 -0.3592185E-07
  0.1440000E+02  0.3209045E+01  0.1695198E+02 -0.1303852E-07  0.5043549E-07  0.6934775E-04 -0.1818232E-03 -0.3518125E-09  0.1397497E-08  0.2339431E+00  0.2018064E+01 -0.2555720E-06 -0.5644033E-07
  0.1450000E+02  0.3235287E+01  0.1690719E+02 -0.3616151E-08 -0.5854008E-07  0.6728423E-04 -0.1405304E-03 -0.3264719E-09 -0.3178769E-08  0.2381444E+00  0.2038268E+01 -0.3068294E-08 -0.4696038E-07
  0.1460000E+02  0.3258065E+01  0.1685884E+02  0.1010267E-07  0.9002906E-08  0.6442481E-04 -0.1043709E-03  0.1434323E-08 -0.4020892E-08  0.2415774E+00  0.2060378E+01 -0.4002671E-06  0.2334166E-06
  0.1470000E+02  0.3277979E+01  0.1680178E+02 -0.3054811E-07 -0.2942643E-07  0.6150990E-04 -0.6407036E-04 -0.1454679E-08 -0.1823906E-08  0.2443439E+00  0.2082815E+01  0.5165588E-06 -0.5357930E-07
  0.1480000E+02  0.3295599E+01  0.1673305E+02  0.3365130E-08 -0.1945045E-07  0.5847956E-04 -0.3501993E-04  0.2045106E-09 -0.4318500E-08  0.2465473E+00  0.2104436E+01 -0.1737914E-06  0.1969936E-06
  0.1490000E+02  0.3311425E+01  0.1665106E+02 -0.4440335E-07  0.1237385E-06  0.5505767E-04 -0.1132206E-04  0.4199980E-09  0.1202556E-07  0.2482852E+00  0.2124450E+01 -0.5035734E-07 -0.1896875E-06
  0.1500000E+02  0.3325910E+01  0.1655544E+02  0.3348396E-07 -0.2746219E-07  0.5161527E-04  0.3656795E-05  0.4689242E-09 -0.1789402E-09  0.2496472E+00  0.2142383E+01 -0.2894789E-06  0.3250161E-06
  0.1510000E+02  0.3339455E+01  0.1644675E+02  0.7967174E-09 -0.5751535E-07  0.4783178E-04  0.1314891E-04 -0.3584634E-09 -0.9755305E-08  0.2507149E+00  0.2157943E+01 -0.4033191E-06 -0.6470349E-07