VARIABLES="w (rad/s)"
"abs(F   1   1)" "angle(F   1   1)"
"abs(F   1   2)" "angle(F   1   2)"
"abs(F   1   3)" "angle(F   1   3)"
"abs(F   1   4)" "angle(F   1   4)"
"abs(F   1   5)" "angle(F   1   5)"
"abs(F   1   6)" "angle(F   1   6)"
"abs(F   2   1)" "angle(F   2   1)"
"abs(F   2   2)" "angle(F   2   2)"
"abs(F   2   3)" "angle(F   2   3)"
"abs(F   2   4)" "angle(F   2   4)"
"abs(F   2   5)" "angle(F   2   5)"
"abs(F   2   6)" "angle(F   2   6)"
Zone t="Diffraction force - beta =   0.000 deg",I=   260,F=POINT
  0.2000000E-01  0.8565353E+02 -0.1570723E+01  0.1339823E-05 -0.2612617E+01  0.5191704E+03 -0.3140940E+01  0.1070347E-02  0.1894088E-01  0.9853434E+03 -0.1570855E+01  0.9400485E-07  0.1276060E+01  0.3386481E+03 -0.1570832E+01  0.1109609E-04  0.6284910E-01  0.4413299E+04 -0.3141587E+01  0.2803151E-02 -0.3139892E+01  0.1383668E+04 -0.1571266E+01  0.0000000E+00  0.0000000E+00
  0.4000000E-01  0.3424827E+03 -0.1570780E+01  0.1601499E-03 -0.3117096E+01  0.2089365E+04 -0.3139004E+01  0.4073455E-02 -0.3133071E+01  0.3936049E+04 -0.1570900E+01  0.6005272E-06 -0.1507103E+01  0.1351971E+04 -0.1570833E+01  0.2574585E-03 -0.3018593E+01  0.1758734E+05 -0.3141565E+01  0.6148475E-01 -0.2422587E-02  0.5477387E+04 -0.1571151E+01  0.1862645E-07 -0.1570796E+01
  0.6000000E-01  0.7690565E+03 -0.1570742E+01  0.6495057E-03  0.1283657E-01  0.4791492E+04 -0.3135921E+01  0.1519073E-01 -0.6612553E-02  0.8831827E+04 -0.1570756E+01  0.3283425E-05  0.1549007E+01  0.3033080E+04 -0.1570828E+01  0.2661048E-03  0.3350723E+00  0.3930579E+05 -0.3141536E+01  0.1216378E+00 -0.8348037E-02  0.1204727E+05 -0.1571243E+01  0.3725290E-07  0.1570796E+01
  0.8000000E-01  0.1373335E+04 -0.1570865E+01  0.2560023E-03  0.1629801E-02  0.8601300E+04 -0.3131681E+01  0.4098641E-01  0.3128666E+01  0.1576395E+05 -0.1570827E+01  0.1423593E-05 -0.1550382E+01  0.5394957E+04 -0.1570778E+01  0.9786577E-03 -0.2978043E+01  0.6926442E+05 -0.3141504E+01  0.2698312E-01 -0.2988515E+01  0.2121480E+05 -0.1571239E+01  0.1490116E-07  0.1570796E+01
  0.9999999E-01  0.2139938E+04 -0.1570819E+01  0.1266770E-02 -0.1908094E-01  0.1353674E+05 -0.3126383E+01  0.5889360E-02 -0.3398691E-01  0.2460363E+05 -0.1570784E+01  0.8638372E-06 -0.2073490E+01  0.8403350E+04 -0.1570798E+01  0.2363872E-02 -0.3038451E+01  0.1069904E+06 -0.3141482E+01  0.2251859E+00  0.3120911E+01  0.3243916E+05 -0.1571321E+01  0.5960464E-07  0.1570796E+01
  0.1200000E+00  0.3068255E+04 -0.1570819E+01  0.1097115E-03 -0.2540480E+01  0.1957649E+05 -0.3120032E+01  0.2465091E-01  0.3123251E+01  0.3522805E+05 -0.1570764E+01  0.3745931E-05 -0.1623310E+01  0.1201768E+05 -0.1570763E+01  0.1389535E-02  0.1094299E+00  0.1519403E+06 -0.3141481E+01  0.1216855E+00 -0.5879724E-01  0.4490696E+05 -0.1571310E+01  0.8940697E-07  0.1570796E+01
  0.1400000E+00  0.4165396E+04 -0.1570802E+01  0.2201352E-02 -0.5180676E-01  0.2696848E+05 -0.3113010E+01  0.5715467E-01  0.1793825E-01  0.4779343E+05 -0.1570805E+01  0.1912083E-05  0.1785981E+01  0.1624072E+05 -0.1570827E+01  0.2931379E-02 -0.2273411E+01  0.2034205E+06 -0.3141517E+01  0.1002226E+00 -0.3038777E+01  0.5862707E+05 -0.1571320E+01  0.2983955E-06 -0.1520838E+01
  0.1600000E+00  0.5436008E+04 -0.1570739E+01  0.2557582E-02  0.4483067E-01  0.3557011E+05 -0.3105161E+01  0.8579292E-01 -0.9781554E-01  0.6193486E+05 -0.1570733E+01  0.6750123E-05 -0.1530502E+01  0.2104091E+05 -0.1570808E+01  0.7671962E-02 -0.2805667E+01  0.2606581E+06  0.3141581E+01  0.5522707E+00 -0.2017412E-01  0.7304196E+05 -0.1571195E+01  0.2980232E-07  0.1570796E+01
  0.1800000E+00  0.6837939E+04 -0.1570722E+01  0.2911478E-02  0.3970622E-01  0.4550715E+05 -0.3096600E+01  0.3116739E-01  0.4148812E-01  0.7775677E+05 -0.1570694E+01  0.3118719E-04 -0.1582906E+01  0.2631798E+05 -0.1570768E+01  0.4612241E-02 -0.4745044E+00  0.3227906E+06  0.3141419E+01  0.1325868E+01 -0.3127115E+01  0.8622156E+05 -0.1571219E+01  0.0000000E+00  0.0000000E+00
  0.2000000E+00  0.8444506E+04 -0.1570648E+01  0.1275179E-02  0.2324063E+01  0.5880485E+05 -0.3089302E+01  0.6538498E-01  0.2956160E+01  0.9495027E+05 -0.1570684E+01  0.7968599E-06  0.1068831E+01  0.3213911E+05 -0.1570752E+01  0.2803257E-02 -0.1003973E+01  0.3889157E+06  0.3141168E+01  0.3180091E+01  0.8157072E-02  0.9960092E+05 -0.1571283E+01  0.7152557E-06  0.1570796E+01
  0.2200000E+00  0.1020475E+05 -0.1570463E+01  0.4766653E-02  0.6582122E-01  0.7017502E+05 -0.3078202E+01  0.2447627E-01  0.2344654E+00  0.1140729E+06 -0.1570474E+01  0.1032241E-04 -0.1747758E+01  0.3837949E+05 -0.1570644E+01  0.7361706E-02  0.7414034E+00  0.4580071E+06  0.3140795E+01  0.9564815E-01  0.3531785E+00  0.1107622E+06 -0.1571294E+01  0.1192093E-06  0.1570796E+01
  0.2400000E+00  0.1209046E+05 -0.1570188E+01  0.1267868E-01  0.1493846E+00  0.8389116E+05 -0.3067395E+01  0.2441242E+00  0.3262908E-01  0.1340900E+06 -0.1570234E+01  0.4507882E-04 -0.1641896E+01  0.4504010E+05 -0.1570541E+01  0.2455142E-02  0.2743011E+01  0.5290918E+06  0.3140277E+01  0.1147064E+01 -0.3108770E+01  0.1203044E+06 -0.1571263E+01  0.2384186E-06 -0.1570796E+01
  0.2600000E+00  0.1420212E+05 -0.1569853E+01  0.1077199E-02  0.7202458E+00  0.1013583E+06 -0.3057994E+01  0.2691873E+00  0.3126937E+01  0.1555827E+06 -0.1569920E+01  0.2280412E-04 -0.1649646E+01  0.5207175E+05 -0.1570389E+01  0.1776712E-01  0.1063133E+00  0.6009941E+06  0.3139579E+01  0.4934111E+01  0.8586460E-02  0.1273120E+06 -0.1570907E+01  0.7152557E-06 -0.1570796E+01
  0.2800000E+00  0.1639555E+05 -0.1569373E+01  0.3413572E-02  0.2940485E+01  0.1170979E+06 -0.3045100E+01  0.4013678E-01 -0.5260152E+00  0.1783100E+06 -0.1569467E+01  0.2669314E-04 -0.1252470E+01  0.5937486E+05 -0.1570179E+01  0.1100490E-01  0.8936695E+00  0.6730367E+06  0.3138669E+01  0.2476887E+01 -0.3132818E+01  0.1302896E+06 -0.1570608E+01  0.1072884E-05 -0.1570796E+01
  0.3000000E+00  0.1875909E+05 -0.1568709E+01  0.7559616E-02  0.3092420E+01  0.1381267E+06 -0.3034733E+01  0.4365568E+00 -0.2378803E-01  0.2013305E+06 -0.1568812E+01  0.3555656E-04 -0.1724910E+01  0.6702150E+05 -0.1569846E+01  0.3118631E-01  0.3011658E+01  0.7435676E+06  0.3137496E+01  0.4075882E+01  0.1752318E-01  0.1316021E+06 -0.1569610E+01  0.4768372E-06 -0.1570796E+01
  0.3200000E+00  0.2132186E+05 -0.1567814E+01  0.2293035E-02  0.4930416E-01  0.1568435E+06 -0.3020512E+01  0.8198664E-01  0.2681909E+01  0.2261606E+06 -0.1567941E+01  0.4881356E-04  0.1538695E+01  0.7486034E+05 -0.1569452E+01  0.2942096E-01  0.3083184E+01  0.8125533E+06  0.3136035E+01  0.7101555E+00 -0.9787702E-01  0.1284049E+06 -0.1568531E+01  0.1430511E-05  0.1570796E+01
  0.3400000E+00  0.2403879E+05 -0.1566640E+01  0.5676090E-02 -0.1002250E+01  0.1805450E+06 -0.3008192E+01  0.1067692E+00  0.1811742E+01  0.2513903E+06 -0.1566780E+01  0.1223495E-03  0.1627925E+01  0.8286698E+05 -0.1568927E+01  0.2734282E-01  0.6673000E+00  0.8779372E+06  0.3134178E+01  0.3367820E+01 -0.1817615E-01  0.1211576E+06 -0.1566795E+01  0.2980232E-07 -0.3141592E+01
  0.3600000E+00  0.2671990E+05 -0.1565135E+01  0.1092645E-01  0.2334823E+01  0.2084550E+06 -0.2997706E+01  0.2841467E+00 -0.3065665E+01  0.2757808E+06 -0.1565286E+01  0.3037351E-04  0.1363135E+01  0.9093258E+05 -0.1568250E+01  0.2915133E-01  0.1758804E+01  0.9401575E+06  0.3131988E+01  0.3242669E+00  0.2904569E+01  0.1090463E+06 -0.1563362E+01  0.7152557E-06  0.1570796E+01
  0.3800000E+00  0.2974201E+05 -0.1563247E+01  0.1433365E-01 -0.2935546E+01  0.2291746E+06 -0.2978756E+01  0.9613960E-01  0.3127734E+01  0.3025148E+06 -0.1563363E+01  0.6013764E-04 -0.1568107E+01  0.9917325E+05 -0.1567410E+01  0.2781041E-01  0.2597134E+01  0.9970016E+06  0.3129178E+01  0.6432721E+00  0.5112963E+00  0.9496514E+05 -0.1557607E+01  0.4805480E-06 -0.1446441E+01
  0.4000000E+00  0.3287277E+05 -0.1560911E+01  0.9446953E-02  0.2841791E+01  0.2594589E+06 -0.2965647E+01  0.1427121E+00  0.1388560E+01  0.3285564E+06 -0.1560941E+01  0.3106998E-04  0.1543426E+01  0.1073890E+06 -0.1566325E+01  0.2417887E-01 -0.2543645E+01  0.1047689E+07  0.3125767E+01  0.2143354E+01  0.8311167E-01  0.7668484E+05 -0.1546965E+01  0.9578561E-06  0.1664273E+01
  0.4200000E+00  0.3606381E+05 -0.1558036E+01  0.2728209E-01 -0.2968732E+01  0.2880936E+06 -0.2949998E+01  0.3725998E+00  0.7718453E-01  0.3547620E+06 -0.1557959E+01  0.5195269E-04 -0.1644463E+01  0.1155470E+06 -0.1565026E+01  0.2120225E-01  0.8239919E+00  0.1094741E+07  0.3121996E+01  0.4867125E+01  0.8627827E-02  0.5401020E+05 -0.1523191E+01  0.2384186E-05 -0.1570796E+01
  0.4400000E+00  0.3942062E+05 -0.1554608E+01  0.2612781E-01  0.2140072E+00  0.3161969E+06 -0.2931279E+01  0.4679485E+00  0.2863976E+01  0.3814972E+06 -0.1554305E+01  0.4032289E-04 -0.2346007E+01  0.1235589E+06 -0.1563438E+01  0.2912162E-01 -0.4746357E+00  0.1133963E+07  0.3117168E+01  0.1736312E+01 -0.3032139E+01  0.2700528E+05 -0.1443404E+01  0.0000000E+00  0.0000000E+00
  0.4600000E+00  0.4273862E+05 -0.1550475E+01  0.2720423E-01 -0.2887202E+00  0.3508221E+06 -0.2916121E+01  0.6991259E+00 -0.2782984E+01  0.4058257E+06 -0.1549803E+01  0.6042900E-04 -0.2487473E+01  0.1315287E+06 -0.1561577E+01  0.2987870E-01 -0.1764753E+01  0.1165201E+07  0.3111397E+01  0.6528717E+01 -0.3131933E+01  0.4636400E+04  0.3351858E-02  0.9536743E-06  0.1570796E+01
  0.4800000E+00  0.4625366E+05 -0.1545658E+01  0.4495608E-01 -0.1694139E+00  0.3880690E+06 -0.2902587E+01  0.3918334E+00 -0.1613470E+01  0.4290087E+06 -0.1544365E+01  0.1703889E-03 -0.1699600E+01  0.1393621E+06 -0.1559386E+01  0.3332817E-01  0.3480271E+00  0.1193276E+07  0.3105683E+01  0.8624242E+01 -0.2779560E-01  0.2920699E+05  0.1361967E+01  0.1192093E-06 -0.3141592E+01
  0.5000000E+00  0.5004419E+05 -0.1540151E+01  0.3365212E-01 -0.2787691E+01  0.4150398E+06 -0.2879502E+01  0.4920312E+00  0.3000069E-01  0.4553823E+06 -0.1538123E+01  0.4385392E-04 -0.3021641E+01  0.1469126E+06 -0.1556851E+01  0.2455571E-01  0.1647906E+00  0.1212095E+07  0.3098083E+01  0.8131766E+00  0.1996256E+00  0.6011420E+05  0.1441371E+01  0.0000000E+00  0.0000000E+00
  0.5200000E+00  0.5382882E+05 -0.1533783E+01  0.3284583E-01  0.1495346E+00  0.4520506E+06 -0.2862524E+01  0.2274891E+00 -0.1770854E+01  0.4783389E+06 -0.1530656E+01  0.1614348E-03 -0.1511176E+01  0.1542143E+06 -0.1553951E+01  0.3993472E-01 -0.2636930E+01  0.1223091E+07  0.3089247E+01  0.1214097E+00  0.1557474E+01  0.9072214E+05  0.1462677E+01  0.1930491E-05  0.1415800E+01
  0.5400000E+00  0.5748236E+05 -0.1526427E+01  0.2432955E-01 -0.2924578E+01  0.4920776E+06 -0.2846791E+01  0.2287943E+00  0.2622239E+01  0.4984363E+06 -0.1521806E+01  0.1339923E-03 -0.1197918E+01  0.1609436E+06 -0.1550640E+01  0.9412953E-01 -0.1125098E+01  0.1225301E+07  0.3078692E+01  0.1802075E+01  0.3060013E+01  0.1250779E+06  0.1472540E+01  0.1998312E-05 -0.1267911E+01
  0.5600000E+00  0.6096555E+05 -0.1517983E+01  0.1777891E-01  0.2549201E+01  0.5264808E+06 -0.2828440E+01  0.6446058E+00 -0.3011062E+01  0.5168138E+06 -0.1511475E+01  0.8695938E-04 -0.1475772E-01  0.1673976E+06 -0.1546926E+01  0.7082046E-01 -0.1400189E+01  0.1229204E+07  0.3070093E+01  0.2052950E+01  0.2054648E+01  0.1580646E+06  0.1473809E+01  0.1922192E-05 -0.1446441E+01
  0.5800000E+00  0.6483592E+05 -0.1508789E+01  0.4031511E-01  0.6388646E+00  0.5601724E+06 -0.2807853E+01  0.9215369E+00 -0.4073147E-01  0.5348373E+06 -0.1499677E+01  0.2306797E-04 -0.2393171E+01  0.1735668E+06 -0.1542824E+01  0.1402944E+00 -0.2438457E+01  0.1222615E+07  0.3057815E+01  0.7983875E+00  0.2151017E+01  0.1864435E+06  0.1472025E+01  0.1018525E-05  0.1929567E+01
  0.6000000E+00  0.6865330E+05 -0.1498644E+01  0.3289612E-01 -0.5686881E+00  0.5991472E+06 -0.2790884E+01  0.1546260E+01  0.3034406E+01  0.5487230E+06 -0.1485988E+01  0.1956858E-03  0.1741995E+01  0.1792739E+06 -0.1538324E+01  0.1039222E+00 -0.6177599E+00  0.1208853E+07  0.3043731E+01  0.5247622E+01 -0.3040060E+01  0.2111053E+06  0.1465973E+01  0.4768372E-06  0.0000000E+00
  0.6199999E+00  0.7236197E+05 -0.1487455E+01  0.8785360E-01 -0.2477161E+01  0.6399207E+06 -0.2775242E+01  0.1205370E+01  0.4150356E+00  0.5591824E+06 -0.1470216E+01  0.9380848E-04 -0.1026034E+01  0.1843121E+06 -0.1533361E+01  0.9696079E-01  0.1964421E+01  0.1187410E+07  0.3027178E+01  0.2953830E+01  0.2990509E+01  0.2351800E+06  0.1457649E+01  0.1966050E-05 -0.1325818E+01
  0.6400000E+00  0.7586792E+05 -0.1475137E+01  0.2637486E-01 -0.2541495E+01  0.6805555E+06 -0.2761695E+01  0.1469295E+01  0.3001101E+01  0.5654699E+06 -0.1452002E+01  0.7024312E-04 -0.2511413E+01  0.1889099E+06 -0.1528014E+01  0.1146893E+00 -0.7319204E+00  0.1169738E+07  0.3016219E+01  0.6111206E+01 -0.8622829E-01  0.2554414E+06  0.1446112E+01  0.2949075E-05 -0.1815775E+01
  0.6600000E+00  0.7938574E+05 -0.1461766E+01  0.6876329E-01 -0.2588786E+01  0.7087478E+06 -0.2740168E+01  0.1283807E+01  0.1587030E+01  0.5740195E+06 -0.1431948E+01  0.1748834E-03 -0.1798319E+01  0.1926478E+06 -0.1522241E+01  0.8305593E-01  0.2506328E+01  0.1143839E+07  0.2998758E+01  0.5715561E+01  0.1891252E+00  0.2768579E+06  0.1434899E+01  0.2132481E-05  0.1107149E+01
  0.6799999E+00  0.8273374E+05 -0.1447182E+01  0.8311691E-02  0.2710483E+01  0.7460091E+06 -0.2724105E+01  0.2307325E+01  0.3816574E-01  0.5739839E+06 -0.1408256E+01  0.1699644E-03 -0.1825835E+01  0.1958323E+06 -0.1516078E+01  0.1979360E+00 -0.1105161E+01  0.1114291E+07  0.2979765E+01  0.4308560E+01 -0.3017242E+01  0.2924697E+06  0.1418903E+01  0.1192093E-05 -0.9272952E+00
  0.7000000E+00  0.8549655E+05 -0.1431243E+01  0.1515379E-01 -0.2445581E+01  0.7836492E+06 -0.2709361E+01  0.7520451E+00 -0.2790827E+01  0.5677442E+06 -0.1380567E+01  0.8770141E-04  0.2211629E+01  0.1982012E+06 -0.1509565E+01  0.2525809E+00 -0.2212381E+01  0.1079957E+07  0.2958012E+01  0.1044161E+01  0.2429797E+00  0.3050686E+06  0.1399176E+01  0.1066240E-05  0.1107149E+01
  0.7199999E+00  0.8787718E+05 -0.1414410E+01  0.7059566E-01  0.8063766E+00  0.8215554E+06 -0.2695762E+01  0.8823860E+00 -0.2359984E+01  0.5550417E+06 -0.1348040E+01  0.1021577E-03 -0.2481687E+00  0.1998751E+06 -0.1502899E+01  0.1079473E+00 -0.1767826E+01  0.1040619E+07  0.2932598E+01  0.2876887E+01 -0.3040678E-01  0.3105485E+06  0.1373701E+01  0.3015783E-05  0.1249046E+01
  0.7399999E+00  0.8995574E+05 -0.1396847E+01  0.1474133E-01 -0.2811720E+01  0.8572044E+06 -0.2683474E+01  0.4584937E+00  0.1188153E+00  0.5370924E+06 -0.1310026E+01  0.1562252E-03 -0.2709987E+01  0.2010912E+06 -0.1496007E+01  0.2166682E+00  0.3023835E+01  0.1005907E+07  0.2919886E+01  0.9272648E+01  0.3059261E+01  0.3102307E+06  0.1346301E+01  0.3724217E-05 -0.2265535E+01
  0.7599999E+00  0.9196015E+05 -0.1378676E+01  0.5078655E-01 -0.1241718E+01  0.8830537E+06 -0.2666683E+01  0.1613678E+01 -0.2883368E+00  0.5207312E+06 -0.1267531E+01  0.1170030E-03  0.1896474E+01  0.2011959E+06 -0.1489060E+01  0.1349452E+00  0.7074327E+00  0.9683137E+06  0.2896827E+01  0.7075407E+01 -0.2928027E+01  0.3128432E+06  0.1318742E+01  0.1907349E-05 -0.1570796E+01
  0.7800000E+00  0.9370270E+05 -0.1359415E+01  0.5422951E-01 -0.1258483E+01  0.9156979E+06 -0.2653640E+01  0.3728244E+00 -0.1515352E+01  0.4942634E+06 -0.1215333E+01  0.3258952E-04  0.2887463E+00  0.2007680E+06 -0.1481961E+01  0.1225077E+00 -0.3087534E+00  0.9301591E+06  0.2872770E+01  0.3358945E+01 -0.4192984E+00  0.3094502E+06  0.1282634E+01  0.0000000E+00  0.0000000E+00
  0.8000000E+00  0.9454198E+05 -0.1339328E+01  0.4252974E-01 -0.2351200E+01  0.9475044E+06 -0.2641908E+01  0.1567851E+01  0.2801953E+01  0.4610657E+06 -0.1151129E+01  0.8812096E-04 -0.8727597E-01  0.1993739E+06 -0.1475049E+01  0.9954444E-01  0.2033127E+01  0.8899888E+06  0.2845653E+01  0.8563656E+01  0.3115939E+01  0.3037640E+06  0.1240454E+01  0.1907349E-05  0.0000000E+00
  0.8200000E+00  0.9472346E+05 -0.1318556E+01  0.3025101E-01  0.2105928E+01  0.9786191E+06 -0.2631130E+01  0.2324158E+00  0.7271847E+00  0.4214733E+06 -0.1069035E+01  0.2540227E-03 -0.1712087E+01  0.1970537E+06 -0.1468234E+01  0.8812297E-01 -0.2620344E+01  0.8479812E+06  0.2814384E+01  0.1496909E+01 -0.1145939E+01  0.2984261E+06  0.1193815E+01  0.1966050E-05 -0.1815775E+01
  0.8399999E+00  0.9435041E+05 -0.1298134E+01  0.4229661E-01 -0.1147897E+01  0.1008809E+07 -0.2621258E+01  0.2126922E+01  0.2382680E+01  0.3769086E+06 -0.9609240E+00  0.3068036E-03  0.2595828E+01  0.1939173E+06 -0.1461698E+01  0.9167229E-01 -0.2615986E+01  0.8036968E+06  0.2777169E+01  0.2178106E+01  0.1944211E+00  0.2918989E+06  0.1138751E+01  0.2861023E-05  0.1570796E+01
  0.8600000E+00  0.9332608E+05 -0.1277894E+01  0.6615756E-01 -0.9282812E+00  0.1033718E+07 -0.2611284E+01  0.5105362E+00 -0.7559862E+00  0.3316556E+06 -0.8160576E+00  0.3773489E-03 -0.1817627E+01  0.1898647E+06 -0.1455641E+01  0.1502301E+00 -0.1106729E+01  0.7603093E+06  0.2763493E+01  0.1433405E+02  0.7437689E-01  0.2881622E+06  0.1106179E+01  0.1907349E-05  0.1570796E+01
  0.8799999E+00  0.9178784E+05 -0.1257162E+01  0.9162451E-01  0.7734986E-01  0.1054596E+07 -0.2600482E+01  0.1156599E+01 -0.1844409E+01  0.2922535E+06 -0.6233311E+00  0.3129076E-03  0.2139338E+01  0.1848233E+06 -0.1450512E+01  0.2021561E+00  0.3126414E+01  0.7229498E+06  0.2737896E+01  0.3675371E+01  0.2489681E+01  0.2916671E+06  0.1090791E+01  0.9536743E-06 -0.1570796E+01
  0.9000000E+00  0.8938025E+05 -0.1235318E+01  0.6070541E-01 -0.1562407E+01  0.1078412E+07 -0.2591491E+01  0.1326869E+01 -0.7198218E-01  0.2583169E+06 -0.3457630E+00  0.3899685E-03  0.1319601E+01  0.1794375E+06 -0.1446543E+01  0.7506216E-01 -0.2117138E+01  0.6859755E+06  0.2711217E+01  0.1590234E+01  0.1815652E+01  0.2877493E+06  0.1063313E+01  0.1348699E-05  0.2356194E+01
  0.9200000E+00  0.8584851E+05 -0.1214996E+01  0.6412505E-01 -0.1766158E+00  0.1100624E+07 -0.2583542E+01  0.1760607E+01  0.2937161E+01  0.2445368E+06  0.1815485E-01  0.8685293E-04  0.1426743E+01  0.1732333E+06 -0.1444054E+01  0.4637967E-01  0.3311645E+00  0.6490511E+06  0.2681163E+01  0.4306150E+01 -0.2062077E+01  0.2833520E+06  0.1037571E+01  0.1066240E-05 -0.2034444E+01
  0.9400000E+00  0.8156282E+05 -0.1196747E+01  0.1251793E-01  0.2468634E-01  0.1121353E+07 -0.2576316E+01  0.1430741E+01 -0.2635370E+01  0.2631030E+06  0.4103999E+00  0.4443569E-04 -0.1423171E+01  0.1663235E+06 -0.1442981E+01  0.1733740E+00  0.1988722E+01  0.6124802E+06  0.2646452E+01  0.8359516E+00  0.1014111E+01  0.2816344E+06  0.1022191E+01  0.1066240E-05 -0.2034444E+01
  0.9599999E+00  0.7643470E+05 -0.1180796E+01  0.7966491E-01 -0.2208283E+01  0.1140480E+07 -0.2569749E+01  0.2097342E+01 -0.7667139E+00  0.3157583E+06  0.7421276E+00  0.2532371E-03  0.1119178E+01  0.1586180E+06 -0.1443818E+01  0.1113702E+00 -0.2711503E+00  0.5760641E+06  0.2604151E+01  0.5225839E+01  0.7741454E+00  0.2832681E+06  0.1019379E+01  0.9536743E-06  0.1570796E+01
  0.9799999E+00  0.7038627E+05 -0.1167382E+01  0.1525443E+00  0.1271894E+01  0.1158220E+07 -0.2563974E+01  0.7390933E+00 -0.8862140E+00  0.3951477E+06  0.9846320E+00  0.1718468E-03  0.7309335E+00  0.1505081E+06 -0.1446590E+01  0.3022928E-01 -0.6076943E+00  0.5337709E+06  0.2575274E+01  0.7519004E+01 -0.2847943E+01  0.2824577E+06  0.1037193E+01  0.1066240E-05 -0.2034444E+01
  0.9999999E+00  0.6343202E+05 -0.1159331E+01  0.9377986E-01  0.2367657E+01  0.1168375E+07 -0.2557137E+01  0.1356130E+01  0.7704371E+00  0.4899697E+06  0.1147931E+01  0.2497777E-03  0.2617539E+01  0.1416054E+06 -0.1452877E+01  0.3377990E+00 -0.1875845E+01  0.4989830E+06  0.2532998E+01  0.2492720E+01  0.2775631E+01  0.2869691E+06  0.1067605E+01  0.2900487E-05 -0.1405648E+01
  0.1020000E+01  0.5577905E+05 -0.1156224E+01  0.1585512E+00  0.1758847E+01  0.1180279E+07 -0.2551594E+01  0.3827548E+00  0.1971943E+01  0.5988976E+06  0.1271982E+01  0.2153104E-03  0.1946854E+01  0.1323940E+06 -0.1462505E+01  0.2171769E+00 -0.1306093E+01  0.4682085E+06  0.2513568E+01  0.1203046E+01  0.1015024E+00  0.3044594E+06  0.1185671E+01  0.1066240E-05  0.2034444E+01
  0.1040000E+01  0.4733443E+05 -0.1162472E+01  0.2675501E+00  0.1709687E+01  0.1191155E+07 -0.2546494E+01  0.2247736E+01  0.5851462E+00  0.7182537E+06  0.1367889E+01  0.1310520E-03  0.1582135E+01  0.1229702E+06 -0.1476760E+01  0.7194594E-01  0.2251268E+01  0.4386212E+06  0.2489786E+01  0.1012670E+01  0.6589644E+00  0.3221014E+06  0.1283965E+01  0.0000000E+00  0.0000000E+00
  0.1060000E+01  0.3788975E+05 -0.1192493E+01  0.1335057E+00 -0.1932879E+01  0.1199945E+07 -0.2542261E+01  0.4886913E+00  0.1043989E+00  0.8458126E+06  0.1444852E+01  0.7059722E-03  0.1512618E+01  0.1131315E+06 -0.1497292E+01  0.4125574E+00 -0.3786190E+00  0.4101944E+06  0.2462183E+01  0.8574219E+01 -0.2700349E+01  0.3460387E+06  0.1381283E+01  0.4768372E-06 -0.1570796E+01
  0.1080000E+01  0.2782724E+05 -0.1269850E+01  0.1362844E+00 -0.1397053E+01  0.1206837E+07 -0.2538548E+01  0.8827044E+00  0.9842848E+00  0.9805380E+06  0.1508140E+01  0.6374446E-04 -0.1507972E+01  0.1031323E+06 -0.1524931E+01  0.3006822E+00  0.3061893E+01  0.3832434E+06  0.2428920E+01  0.2980153E+01  0.7174038E+00  0.3782709E+06  0.1475577E+01  0.4768372E-06  0.1570796E+01
  0.1100000E+01  0.1766826E+05 -0.1487411E+01  0.1923652E+00 -0.1541007E+01  0.1211814E+07 -0.2535312E+01  0.1871294E+01 -0.1201004E+01  0.1120857E+07  0.1561572E+01  0.6553755E-04 -0.1652688E+01  0.9283280E+05 -0.1561651E+01  0.8411589E-01  0.3314082E+00  0.3580039E+06  0.2385165E+01  0.7743117E+01 -0.2582421E+00  0.4206008E+06  0.1560030E+01  0.0000000E+00  0.0000000E+00
  0.1120000E+01  0.1049337E+05 -0.2212728E+01  0.1124890E+00  0.1674549E+01  0.1214802E+07 -0.2532493E+01  0.1102496E+01 -0.6744694E+00  0.1265688E+07  0.1607820E+01  0.1227895E-03  0.9067718E+00  0.8279223E+05 -0.1610336E+01  0.1022061E+00 -0.6657668E+00  0.3350303E+06  0.2324792E+01  0.3555341E+01 -0.2631242E+01  0.4658207E+06  0.1627546E+01  0.5331202E-06  0.1107149E+01
  0.1140000E+01  0.1498826E+05  0.3080268E+01  0.3435419E-01 -0.2128736E+01  0.1215313E+07 -0.2529986E+01  0.9862605E+00  0.2137833E+01  0.1413499E+07  0.1648489E+01  0.7070244E-04  0.2062898E+01  0.7298741E+05 -0.1678158E+01  0.2303732E+00  0.2232589E+01  0.3072899E+06  0.2262714E+01  0.4380106E+01 -0.3124156E+01  0.5117674E+06  0.1693111E+01  0.4768372E-06  0.0000000E+00
  0.1160000E+01  0.2670341E+05  0.2745352E+01  0.3275747E-01  0.1381480E+01  0.1211852E+07 -0.2527754E+01  0.2629011E+01 -0.1877995E-01  0.1560783E+07  0.1683376E+01  0.2372388E-03  0.1617655E+01  0.6339874E+05 -0.1773772E+01  0.1873086E+00 -0.1749257E+01  0.2851705E+06  0.2224139E+01  0.2247282E+01 -0.1152785E+01  0.5799404E+06  0.1766389E+01  0.6743496E-06 -0.2356194E+01
  0.1180000E+01  0.4006327E+05  0.2630928E+01  0.7945701E-01 -0.1900616E+01  0.1208426E+07 -0.2525964E+01  0.2878058E+00  0.4009820E+00  0.1712132E+07  0.1716168E+01  0.3263494E-04  0.3058512E+01  0.5476615E+05 -0.1900895E+01  0.9047715E-01 -0.1372473E+01  0.2613361E+06  0.2212474E+01  0.4581082E+01  0.5492532E+00  0.6748168E+06  0.1857041E+01  0.0000000E+00  0.0000000E+00
  0.1200000E+01  0.5437720E+05  0.2585651E+01  0.1404909E+00  0.1727730E+01  0.1202971E+07 -0.2524544E+01  0.1382476E+01  0.1960148E+01  0.1864278E+07  0.1746207E+01  0.1830051E-03  0.2382360E+01  0.4745311E+05 -0.2071331E+01  0.2468493E+00  0.4560379E+00  0.2396487E+06  0.2195688E+01  0.4929413E+01  0.2245189E+01  0.7691561E+06  0.1915045E+01  0.5331202E-06 -0.2034444E+01
  0.1220000E+01  0.6946585E+05  0.2568415E+01  0.7978648E-01 -0.1815343E+01  0.1195435E+07 -0.2523753E+01  0.1286480E+01  0.2166213E+01  0.2016742E+07  0.1773814E+01  0.3043490E-03 -0.3071172E+01  0.4201821E+05 -0.2297429E+01  0.2612812E+00 -0.2460955E+01  0.2197440E+06  0.2174253E+01  0.3770610E+00 -0.1238590E+01  0.8686944E+06  0.1956997E+01  0.5331202E-06 -0.2034444E+01
  0.1240000E+01  0.8497957E+05  0.2566013E+01  0.1013580E+00 -0.1567447E+01  0.1185874E+07 -0.2523382E+01  0.1988745E+01 -0.9662697E+00  0.2168743E+07  0.1799003E+01  0.1221792E-03 -0.2901688E+01  0.3933051E+05 -0.2570326E+01  0.8652213E-01  0.8288914E+00  0.2018794E+06  0.2145578E+01  0.5203979E+01 -0.5229048E+00  0.9744177E+06  0.1989254E+01  0.1066240E-05  0.1107149E+01
  0.1260000E+01  0.1009238E+06  0.2569205E+01  0.8977250E-01 -0.1449179E+01  0.1174313E+07 -0.2523446E+01  0.5012983E+00  0.1026086E+01  0.2319036E+07  0.1822302E+01  0.8098716E-03 -0.2076023E+01  0.3996079E+05 -0.2858980E+01  0.2837186E+00 -0.2809625E+01  0.1866204E+06  0.2103076E+01  0.4502125E+01 -0.2268334E+01  0.1084909E+07  0.2014498E+01  0.4768372E-06 -0.3141592E+01
  0.1280000E+01  0.1172177E+06  0.2576125E+01  0.4048312E-01 -0.1366984E+01  0.1160796E+07 -0.2523914E+01  0.1657951E+01 -0.2424307E+01  0.2466922E+07  0.1843964E+01  0.5863857E-03 -0.1583778E+01  0.4377482E+05 -0.3114061E+01  0.3048568E+00 -0.2315576E+01  0.1748100E+06  0.2039189E+01  0.1232292E+01  0.1183403E+01  0.1195223E+07  0.2032355E+01  0.0000000E+00  0.0000000E+00
  0.1300000E+01  0.1336895E+06  0.2586592E+01  0.1174130E+00  0.1599424E+01  0.1145408E+07 -0.2524695E+01  0.6298203E+00 -0.3345127E+00  0.2611879E+07  0.1863983E+01  0.2798690E-03 -0.2534335E+01  0.4977660E+05  0.2968057E+01  0.3147286E+00 -0.2722941E+01  0.1677243E+06  0.1947629E+01  0.4160183E+01  0.2779694E+01  0.1302634E+07  0.2040757E+01  0.4915125E-06 -0.1325818E+01
  0.1320000E+01  0.1502918E+06  0.2599396E+01  0.4914706E-01  0.2587214E+01  0.1127959E+07 -0.2525761E+01  0.1240843E+01 -0.2753994E+01  0.2752804E+07  0.1882648E+01  0.8809901E-04  0.2857364E+01  0.5728530E+05  0.2815500E+01  0.2913496E+00 -0.1018774E+01  0.1606947E+06  0.1847430E+01  0.1230192E+02 -0.3017825E+01  0.1405159E+07  0.2041840E+01  0.5960464E-06 -0.3141592E+01
  0.1340000E+01  0.1670162E+06  0.2612882E+01  0.2112301E+00  0.1857482E+01  0.1108163E+07 -0.2527400E+01  0.3989051E+00  0.5917158E+00  0.2888325E+07  0.1899922E+01  0.3153782E-03  0.7074323E+00  0.6582841E+05  0.2698701E+01  0.8280550E-01 -0.6401514E+00  0.1476363E+06  0.1805184E+01  0.6601600E+01 -0.2786709E+01  0.1531172E+07  0.2054820E+01  0.1124618E-05 -0.1012197E+01
  0.1360000E+01  0.1836216E+06  0.2626711E+01  0.1442719E-01 -0.2769360E+01  0.1087120E+07 -0.2529460E+01  0.1687175E+01 -0.1639671E+01  0.3019932E+07  0.1916322E+01  0.4389263E-03 -0.1813114E+01  0.7470799E+05  0.2612303E+01  0.4326795E-01 -0.2167446E+01  0.1303194E+06  0.1785977E+01  0.3714591E+01  0.3874305E+00  0.1675110E+07  0.2081051E+01  0.2457562E-06 -0.1325818E+01
  0.1380000E+01  0.2001116E+06  0.2641330E+01  0.2005206E+00 -0.1851871E+01  0.1064242E+07 -0.2531864E+01  0.4569654E+00  0.1198809E+01  0.3146060E+07  0.1931636E+01  0.2861301E-03 -0.2371797E+01  0.8375438E+05  0.2544993E+01  0.7285703E-01 -0.5929923E+00  0.1150765E+06  0.1763261E+01  0.7173793E+01  0.3484974E-01  0.1814695E+07  0.2097346E+01  0.5066395E-06 -0.3141592E+01
  0.1400000E+01  0.2164788E+06  0.2656520E+01  0.4869155E-01 -0.2069950E+01  0.1039636E+07 -0.2534833E+01  0.1772527E+01 -0.1475572E+01  0.3266025E+07  0.1945948E+01  0.2745051E-03  0.1850998E+00  0.9288322E+05  0.2490735E+01  0.1258679E+00  0.7853128E+00  0.1017114E+06  0.1735545E+01  0.5079806E+01 -0.2865053E+01  0.1951767E+07  0.2106879E+01  0.4915125E-06 -0.1325818E+01
  0.1420000E+01  0.2325052E+06  0.2672363E+01  0.1694015E+00  0.1397048E+01  0.1013323E+07 -0.2538214E+01  0.1998613E+01  0.1230080E+01  0.3379784E+07  0.1959174E+01  0.1238341E-02  0.6080688E+00  0.1020706E+06  0.2444148E+01  0.1171622E+00 -0.8376638E+00  0.9028223E+05  0.1700544E+01  0.2283708E+01  0.1234878E+01  0.2091310E+07  0.2112105E+01  0.7417000E-06 -0.6982753E+00
  0.1440000E+01  0.2481096E+06  0.2688111E+01  0.4679993E-01 -0.1585387E+01  0.9854037E+06 -0.2542050E+01  0.2281143E+01 -0.2893710E+01  0.3486007E+07  0.1971418E+01  0.6162428E-03  0.1894934E+01  0.1109468E+06  0.2406658E+01  0.2024373E+00  0.1831425E+01  0.8136859E+05  0.1652296E+01  0.2647216E+01  0.2656055E+01  0.2226876E+07  0.2115523E+01  0.2425733E-06 -0.1385448E+01
  0.1460000E+01  0.2632942E+06  0.2703457E+01  0.5151029E-01 -0.1288381E+01  0.9559634E+06 -0.2546424E+01  0.1439057E+01  0.6190759E+00  0.3584102E+07  0.1982866E+01  0.1106529E-02  0.2742833E+01  0.1199703E+06  0.2373680E+01  0.1796867E+00  0.1328041E+01  0.7554812E+05  0.1584650E+01  0.7617125E+01 -0.9223182E-01  0.2362914E+07  0.2115680E+01  0.1192093E-06  0.0000000E+00
  0.1480000E+01  0.2778627E+06  0.2719024E+01  0.1227567E+00  0.1326387E+01  0.9251148E+06 -0.2551282E+01  0.6447611E+00 -0.1946448E+01  0.3674134E+07  0.1993469E+01  0.6315409E-03 -0.1505764E+01  0.1288014E+06  0.2346437E+01  0.1423659E+00  0.2185986E+01  0.7362157E+05  0.1496351E+01  0.1202669E+01 -0.1070468E+01  0.2493678E+07  0.2112923E+01  0.3816560E-06 -0.2466852E+01
  0.1500000E+01  0.2918380E+06  0.2734702E+01  0.3502107E-01 -0.2418295E+01  0.8930388E+06 -0.2556639E+01  0.5180750E+00 -0.1966364E+01  0.3755214E+07  0.2003335E+01  0.4824210E-03 -0.1384834E+01  0.1373891E+06  0.2321522E+01  0.4644702E-01 -0.1795284E+01  0.7631441E+05  0.1393564E+01  0.4780307E+01  0.3174165E+00  0.2617602E+07  0.2105062E+01  0.5623091E-06  0.2129396E+01
  0.1520000E+01  0.3051370E+06  0.2750377E+01  0.6471025E-01  0.6756081E+00  0.8598021E+06 -0.2562451E+01  0.2045345E+01  0.1440053E+01  0.3826966E+07  0.2012507E+01  0.6067037E-03 -0.2686238E+00  0.1457604E+06  0.2299334E+01  0.1351185E+00  0.2688561E+01  0.8174121E+05  0.1294239E+01  0.4383181E+01 -0.1257208E+00  0.2732497E+07  0.2092466E+01  0.2665601E-06  0.2034444E+01
  0.1540000E+01  0.3175790E+06  0.2765968E+01  0.2216110E+00 -0.1764223E+01  0.8252318E+06 -0.2569057E+01  0.1499920E+01 -0.2126738E+01  0.3889384E+07  0.2020971E+01  0.6875213E-03 -0.1993593E+01  0.1540936E+06  0.2278323E+01  0.2591666E+00  0.2715209E+01  0.7844234E+05  0.1233987E+01  0.2263188E+01  0.4399072E+00  0.2853688E+07  0.2082571E+01  0.2980232E-06  0.0000000E+00
  0.1560000E+01  0.3291817E+06  0.2781587E+01  0.1410858E+00  0.1895038E+01  0.7895976E+06 -0.2576681E+01  0.1181110E+01  0.2742481E+00  0.3942085E+07  0.2028849E+01  0.5100653E-03  0.7867370E+00  0.1621105E+06  0.2258630E+01  0.5507035E-01  0.2645853E+01  0.6734288E+05  0.1179273E+01  0.9447009E+01  0.1631062E+00  0.2989213E+07  0.2088425E+01  0.4172325E-06  0.0000000E+00