VARIABLES="w (rad/s)"
"abs(F   1   1)" "angle(F   1   1)"
"abs(F   1   2)" "angle(F   1   2)"
"abs(F   1   3)" "angle(F   1   3)"
"abs(F   1   4)" "angle(F   1   4)"
"abs(F   1   5)" "angle(F   1   5)"
"abs(F   1   6)" "angle(F   1   6)"
"abs(F   2   1)" "angle(F   2   1)"
"abs(F   2   2)" "angle(F   2   2)"
"abs(F   2   3)" "angle(F   2   3)"
"abs(F   2   4)" "angle(F   2   4)"
"abs(F   2   5)" "angle(F   2   5)"
"abs(F   2   6)" "angle(F   2   6)"
Zone t="Diffraction force - beta =   0.000 deg",I=   260,F=POINT
  0.2000000E-01  0.3759713E+03 -0.1570783E+01  0.4040845E+00  0.3141587E+01  0.2800169E+07 -0.1210098E-06  0.1823904E+00 -0.1242595E-03  0.3923208E+04 -0.1570913E+01  0.8696849E-04 -0.4347444E-02  0.6930984E+03 -0.1570982E+01  0.1006538E+01  0.6646353E-06  0.2722687E+06 -0.9091676E-07  0.2345016E+00  0.3090842E-03  0.3415752E+04 -0.1570433E+01  0.7748604E-06 -0.1570796E+01
  0.4000000E-01  0.1503572E+04 -0.1570773E+01  0.1833571E+00 -0.3141431E+01  0.2797730E+07 -0.1933223E-05  0.1757957E+00 -0.3141385E+01  0.1568406E+05 -0.1570836E+01  0.2629676E-04 -0.9904482E-01  0.2767067E+04 -0.1570808E+01  0.6184234E+00 -0.3141548E+01  0.2580210E+06 -0.1879106E-05  0.3142476E+02 -0.3343955E-05  0.1360308E+05 -0.1570879E+01  0.3356487E-05 -0.1570796E+01
  0.6000000E-01  0.3380812E+04 -0.1570791E+01  0.3876505E+00  0.3893940E-04  0.2793554E+07 -0.9728117E-05  0.2931144E-02 -0.1282578E+00  0.3525197E+05 -0.1570788E+01  0.2808526E-04  0.3356046E+00  0.6206940E+04 -0.1570787E+01  0.6655641E+00  0.3141419E+01  0.2345541E+06 -0.9498418E-05  0.7120554E+01 -0.3141381E+01  0.3032033E+05 -0.1570903E+01  0.2942979E-05 -0.1570796E+01
  0.8000000E-01  0.6014726E+04 -0.1570809E+01  0.5166965E-01 -0.3141170E+01  0.2787719E+07 -0.3058130E-04  0.7873522E+01  0.8334984E-04  0.6270098E+05 -0.1570803E+01  0.1000679E-04 -0.1937028E+01  0.1101236E+05 -0.1570770E+01  0.5478645E-01 -0.3022196E-02  0.2021352E+06 -0.3036708E-04  0.5935028E+02 -0.1009470E-03  0.5367513E+05 -0.1571038E+01  0.1190603E-04 -0.1570796E+01
  0.9999999E-01  0.9388618E+04 -0.1570802E+01  0.2251037E-02 -0.1648377E-01  0.2780152E+07 -0.7405358E-04  0.6766659E+01 -0.2089835E-04  0.9787812E+05 -0.1570792E+01  0.1858565E-03 -0.2585891E+00  0.1713062E+05 -0.1570796E+01  0.4686218E+00 -0.3140949E+01  0.1612968E+06 -0.7334444E-04  0.1976216E+02  0.8740059E-04  0.8310884E+05 -0.1571033E+01  0.1490116E-05  0.1570796E+01
  0.1200000E+00  0.1350017E+05 -0.1570802E+01  0.3864962E-01 -0.3138498E+01  0.2770888E+07 -0.1523150E-03  0.4597530E+01  0.1639777E-03  0.1406295E+06 -0.1570791E+01  0.1211647E-03  0.1603100E+00  0.2449782E+05 -0.1570791E+01  0.6585691E+00  0.3141440E+01  0.1126067E+06 -0.1507743E-03  0.1652674E+02 -0.3366505E-03  0.1177826E+06 -0.1571024E+01  0.6765127E-05  0.1570796E+01
  0.1400000E+00  0.1835431E+05 -0.1570797E+01  0.5576237E+00 -0.3141376E+01  0.2759672E+07 -0.2792823E-03  0.1061314E+02  0.3932797E-03  0.1910728E+06 -0.1570799E+01  0.3258144E-04 -0.3017526E+01  0.3308876E+05 -0.1570815E+01  0.1114666E+01 -0.2141185E-02  0.5674360E+05 -0.2714893E-03  0.1367765E+02 -0.7587451E-03  0.1576746E+06 -0.1571017E+01  0.1132586E-05  0.1557639E+01
  0.1600000E+00  0.2395315E+05 -0.1570785E+01  0.3586663E-01 -0.3140666E+01  0.2746648E+07 -0.4716998E-03  0.1210061E+02 -0.3140894E+01  0.2487976E+06 -0.1570779E+01  0.1008709E-03  0.2711721E+01  0.4283978E+05 -0.1570802E+01  0.3188182E+00 -0.3134637E+01  0.5436595E+04  0.3141037E+01  0.2537167E+02 -0.3141373E+01  0.2021921E+06 -0.1570863E+01  0.1195073E-04  0.1570796E+01
  0.1800000E+00  0.3025155E+05 -0.1570778E+01  0.3816123E+00  0.3141348E+01  0.2731684E+07 -0.7492796E-03  0.7188733E+01 -0.8840291E-04  0.3138560E+06 -0.1570771E+01  0.6560166E-04  0.3619591E+00  0.5361439E+05 -0.1570785E+01  0.8958000E+00 -0.3139335E+01  0.7306612E+05  0.3140825E+01  0.1382769E+02 -0.3140944E+01  0.2493588E+06 -0.1570956E+01  0.3242493E-04 -0.1570796E+01
  0.2000000E+00  0.3731916E+05 -0.1570763E+01  0.5450192E+00  0.1540589E-02  0.2712742E+07 -0.1133001E-02  0.1168595E+01  0.1108011E-01  0.3858782E+06 -0.1570768E+01  0.2260431E-03 -0.2994674E+00  0.6544047E+05 -0.1570774E+01  0.1210518E+01 -0.3139862E+01  0.1451998E+06  0.3140455E+01  0.6026114E+01  0.3137784E+01  0.3005620E+06 -0.1570963E+01  0.3576279E-05  0.1570796E+01
  0.2200000E+00  0.4510103E+05 -0.1570721E+01  0.5383105E+00  0.8632151E-03  0.2695118E+07 -0.1649450E-02  0.3098394E+01  0.1420173E-02  0.4653542E+06 -0.1570718E+01  0.7834952E-04  0.1551410E+01  0.7815051E+05 -0.1570727E+01  0.4579027E+00  0.1054211E-01  0.2207613E+06  0.3139938E+01  0.1759000E+02  0.3139063E+01  0.3533255E+06 -0.1570964E+01  0.8702278E-05  0.1570796E+01
  0.2400000E+00  0.5356439E+05 -0.1570660E+01  0.3065913E+00  0.3319375E-02  0.2674533E+07 -0.2325199E-02  0.7089119E+01  0.7615546E-03  0.5511739E+06 -0.1570659E+01  0.2162881E-03 -0.9705797E-01  0.9170062E+05 -0.1570669E+01  0.1010356E+01  0.2462688E-03  0.2987365E+06  0.3139262E+01  0.2759426E+02 -0.3139618E+01  0.4081802E+06 -0.1570939E+01  0.5483627E-05  0.1570796E+01
  0.2600000E+00  0.6280429E+05 -0.1570582E+01  0.4546499E+00 -0.3141476E+01  0.2649572E+07 -0.3194317E-02  0.1142972E+02  0.1315928E-03  0.6438349E+06 -0.1570584E+01  0.1855696E-03 -0.2862347E+01  0.1059947E+06 -0.1570591E+01  0.4650093E-01  0.3104938E+01  0.3779119E+06  0.3138391E+01  0.2106649E+01  0.1840225E-01  0.4641446E+06 -0.1570827E+01  0.7152557E-06 -0.1570796E+01
  0.2800000E+00  0.7267098E+05 -0.1570475E+01  0.3352949E-01  0.3108746E+01  0.2625737E+07 -0.4296545E-02  0.9183766E+01 -0.2238348E-02  0.7430048E+06 -0.1570477E+01  0.7716761E-04  0.1353239E+01  0.1208845E+06 -0.1570493E+01  0.9509713E-01  0.8919916E-01  0.4575439E+06  0.3137292E+01  0.8125420E+01 -0.6317948E-02  0.5196328E+06 -0.1570765E+01  0.1800061E-04  0.1570796E+01
  0.3000000E+00  0.8324580E+05 -0.1570326E+01  0.1792173E+00 -0.1362924E-02  0.2595987E+07 -0.5674977E-02  0.8319904E+01 -0.3140533E+01  0.8476396E+06 -0.1570325E+01  0.2985068E-03 -0.1657240E+01  0.1363929E+06 -0.1570330E+01  0.6460416E+00  0.3135583E+01  0.5359404E+06  0.3135909E+01  0.1533903E+02  0.3506070E-02  0.5769242E+06 -0.1570523E+01  0.1192093E-04 -0.1570796E+01
  0.3200000E+00  0.9455084E+05 -0.1570124E+01  0.7035008E+00  0.1269531E-02  0.2567972E+07 -0.7377225E-02  0.8526850E+01  0.4196891E-02  0.9591517E+06 -0.1570123E+01  0.2496555E-03 -0.1887405E+01  0.1523186E+06 -0.1570137E+01  0.2868755E+00  0.3135706E+01  0.6130225E+06  0.3134226E+01  0.1401059E+01 -0.3097361E+01  0.6330722E+06 -0.1570333E+01  0.2622604E-04  0.1570796E+01
  0.3400000E+00  0.1065331E+06 -0.1569859E+01  0.3393817E+00 -0.1481715E-01  0.2534369E+07 -0.9475256E-02  0.4492750E+00  0.2911051E+01  0.1076012E+07 -0.1569858E+01  0.3673836E-03  0.1383246E+01  0.1685878E+06 -0.1569877E+01  0.5679287E+00  0.2917514E-01  0.6866754E+06  0.3132113E+01  0.6190265E+01 -0.3130226E+01  0.6884319E+06 -0.1570107E+01  0.1716616E-04 -0.1572532E+01
  0.3600000E+00  0.1189930E+06 -0.1569525E+01  0.1533751E-01  0.4958681E+00  0.2495937E+07 -0.1197595E-01  0.8758563E+01 -0.3138952E+01  0.1196853E+07 -0.1569526E+01  0.1261918E-03  0.8417637E+00  0.1850420E+06 -0.1569546E+01  0.3726142E+00  0.7712505E-01  0.7572989E+06  0.3129669E+01  0.1380211E+01  0.7620122E-01  0.7420656E+06 -0.1569701E+01  0.8344651E-05  0.1570796E+01
  0.3800000E+00  0.1322980E+06 -0.1569100E+01  0.3041458E-01 -0.1109212E+00  0.2464311E+07 -0.1507714E-01  0.8173514E+01 -0.3141474E+01  0.1324724E+07 -0.1569099E+01  0.5554396E-03 -0.1480861E+01  0.2017495E+06 -0.1569131E+01  0.1572643E+00  0.3051639E+01  0.8226278E+06  0.3126546E+01  0.3122464E+00  0.1720005E+01  0.7967394E+06 -0.1569229E+01  0.2908713E-04 -0.1568747E+01
  0.4000000E+00  0.1462041E+06 -0.1568573E+01  0.1089368E+00  0.2235619E-01  0.2422498E+07 -0.1874848E-01  0.5743258E+01  0.2489870E-01  0.1456444E+07 -0.1568573E+01  0.1373853E-03  0.1173511E+01  0.2184636E+06 -0.1568598E+01  0.5687670E+00 -0.3118940E+01  0.8818312E+06  0.3122790E+01  0.3184919E+01  0.6845385E-01  0.8500867E+06 -0.1568653E+01  0.2523201E-04  0.2224691E+01
  0.4200000E+00  0.1606518E+06 -0.1567932E+01  0.6435909E+00 -0.7492048E-02  0.2381899E+07 -0.2303414E-01  0.3830190E+01  0.6823093E-02  0.1592711E+07 -0.1567937E+01  0.4201812E-03  0.1594240E+01  0.2351065E+06 -0.1567960E+01  0.1850748E+00  0.9244543E-01  0.9374001E+06  0.3118706E+01  0.4745312E+01  0.3127984E+01  0.9017451E+06 -0.1567943E+01  0.2050399E-04  0.1570796E+01
  0.4400000E+00  0.1757323E+06 -0.1567165E+01  0.5140523E-01  0.3042151E+01  0.2341556E+07 -0.2819498E-01  0.2399612E+01  0.3089026E+01  0.1733727E+07 -0.1567167E+01  0.2475239E-03  0.1325320E+01  0.2515475E+06 -0.1567182E+01  0.7629870E+00 -0.2191351E-01  0.9850805E+06  0.3113476E+01  0.1384302E+02 -0.3127485E+01  0.9515338E+06 -0.1567186E+01  0.1525879E-04 -0.1570796E+01
  0.4600000E+00  0.1912277E+06 -0.1566255E+01  0.4664059E-01 -0.3041006E+01  0.2294199E+07 -0.3419373E-01  0.2789786E+01 -0.3054676E+01  0.1876375E+07 -0.1566256E+01  0.3834468E-03 -0.1859441E+01  0.2678504E+06 -0.1566268E+01  0.4331573E+00 -0.3076134E+01  0.1024696E+07  0.3107255E+01  0.4566055E+01 -0.3126310E+01  0.1004097E+07 -0.1566177E+01  0.5817413E-04  0.1570796E+01
  0.4800000E+00  0.2073571E+06 -0.1565189E+01  0.5543761E+00 -0.1344515E-01  0.2243749E+07 -0.4095639E-01  0.8071543E+01 -0.3093833E+01  0.2021732E+07 -0.1565188E+01  0.1514651E-03  0.1494242E+01  0.2838834E+06 -0.1565196E+01  0.7241668E+00  0.1920460E-01  0.1061024E+07  0.3101205E+01  0.4753660E+01 -0.5527673E-01  0.1057151E+07 -0.1565067E+01  0.5722058E-04 -0.1572879E+01
  0.5000000E+00  0.2241820E+06 -0.1563956E+01  0.4125058E-01 -0.2861134E+00  0.2203914E+07 -0.4881299E-01  0.1184921E+02  0.2285592E-02  0.2173924E+07 -0.1563954E+01  0.3774332E-03  0.1507983E+01  0.2994655E+06 -0.1563956E+01  0.2967718E+00  0.3136258E+01  0.1087938E+07  0.3093114E+01  0.5546162E+01  0.3119185E+01  0.1109789E+07 -0.1563806E+01  0.1907349E-04 -0.1570796E+01
  0.5200000E+00  0.2414018E+06 -0.1562544E+01  0.6415336E+00  0.3377458E-02  0.2153578E+07 -0.5785328E-01  0.1614490E+01 -0.1260158E+00  0.2326133E+07 -0.1562544E+01  0.5860571E-03 -0.1694543E+01  0.3145999E+06 -0.1562540E+01  0.5823908E+00 -0.3110798E+01  0.1106852E+07  0.3083744E+01  0.3263414E+01  0.3126275E+01  0.1164765E+07 -0.1562390E+01  0.2098296E-04  0.1556592E+01
  0.5400000E+00  0.2588703E+06 -0.1560948E+01  0.1442078E+00 -0.3369062E-01  0.2100048E+07 -0.6813360E-01  0.8508397E+01  0.3129005E+01  0.2478676E+07 -0.1560948E+01  0.5578270E-03 -0.1234630E+01  0.3289348E+06 -0.1560933E+01  0.3265314E+00 -0.2875444E+01  0.1116769E+07  0.3072570E+01  0.2397744E+01  0.6368072E-01  0.1217729E+07 -0.1560715E+01  0.9555351E-05 -0.1508377E+01
  0.5600000E+00  0.2765261E+06 -0.1559157E+01  0.3859217E-01  0.2860801E+01  0.2052147E+07 -0.7911558E-01  0.5800900E+01 -0.9826867E-02  0.2632451E+07 -0.1559156E+01  0.8878175E-03 -0.1729591E+01  0.3427424E+06 -0.1559139E+01  0.2824894E+00 -0.2441353E+00  0.1128118E+07  0.3063673E+01  0.5339083E+01  0.3326193E+00  0.1273623E+07 -0.1558778E+01  0.2479668E-04  0.1561181E+01
  0.5800000E+00  0.2949018E+06 -0.1557172E+01  0.4822958E+00  0.5336075E-01  0.2005409E+07 -0.9163097E-01  0.3046775E+00 -0.2069594E+00  0.2788557E+07 -0.1557167E+01  0.2166648E-03  0.1115669E+01  0.3559925E+06 -0.1557159E+01  0.3387448E+00 -0.2723635E+00  0.1128741E+07  0.3050829E+01  0.2570195E+01  0.3009852E+00  0.1335436E+07 -0.1557027E+01  0.2575169E-04 -0.1584684E+01
  0.6000000E+00  0.3135314E+06 -0.1555010E+01  0.1723174E+00 -0.9593937E-01  0.1953170E+07 -0.1055863E+00  0.1108365E+02  0.3128471E+01  0.2942921E+07 -0.1555001E+01  0.6009554E-03  0.1276527E+01  0.3684888E+06 -0.1555001E+01  0.1152106E+00 -0.2575212E+01  0.1121931E+07  0.3036122E+01  0.1320964E+02 -0.3101196E+01  0.1402134E+07 -0.1555043E+01  0.1936335E-04  0.1744042E+01
  0.6199999E+00  0.3323303E+06 -0.1552669E+01  0.1643453E+00 -0.2809128E+01  0.1899150E+07 -0.1209944E+00  0.4034491E+01  0.3019181E+01  0.3095944E+07 -0.1552659E+01  0.1229427E-03 -0.5022964E+00  0.3800100E+06 -0.1552643E+01  0.2838230E+00  0.2821322E+01  0.1107163E+07  0.3018845E+01  0.1986963E+01  0.2890835E+01  0.1470394E+07 -0.1552736E+01  0.6624435E-05 -0.2098871E+01
  0.6400000E+00  0.3511729E+06 -0.1550160E+01  0.1556798E+00 -0.1013760E+00  0.1844810E+07 -0.1372289E+00  0.3509960E+01  0.3082076E+01  0.3246555E+07 -0.1550152E+01  0.8391456E-03  0.1599276E+01  0.3907734E+06 -0.1550119E+01  0.4932685E+00 -0.1564317E+00  0.1095803E+07  0.3007710E+01  0.1328442E+02 -0.4044713E-01  0.1543281E+07 -0.1550210E+01  0.7011655E-04  0.1690090E+01
  0.6600000E+00  0.3702405E+06 -0.1547462E+01  0.1069770E+00 -0.3534368E+00  0.1804264E+07 -0.1540950E+00  0.6335370E+01  0.2056004E+00  0.3400849E+07 -0.1547433E+01  0.3734099E-03 -0.1998321E+01  0.4003511E+06 -0.1547439E+01  0.1581148E+00  0.3169514E+00  0.1075964E+07  0.2989680E+01  0.1425342E+02  0.7599124E-01  0.1615561E+07 -0.1547578E+01  0.5150724E-04 -0.1552280E+01
  0.6799999E+00  0.3893148E+06 -0.1544590E+01  0.4615639E+00  0.5316307E-02  0.1754420E+07 -0.1732765E+00  0.7564450E+00  0.3048723E+01  0.3547551E+07 -0.1544610E+01  0.9016388E-03 -0.1776591E+01  0.4090431E+06 -0.1544609E+01  0.5160909E+00 -0.3489745E+00  0.1052166E+07  0.2970118E+01  0.1577745E+02 -0.3107816E+01  0.1694148E+07 -0.1544672E+01  0.5817853E-04 -0.1558502E+01
  0.7000000E+00  0.4079440E+06 -0.1541639E+01  0.3298110E+00 -0.4420640E-01  0.1704196E+07 -0.1938357E+00  0.6564596E+00 -0.3819561E+00  0.3688624E+07 -0.1541689E+01  0.1958117E-02  0.1573883E+01  0.4165855E+06 -0.1541678E+01  0.2371510E+00 -0.2135230E+01  0.1023285E+07  0.2947719E+01  0.7092890E+01  0.3017414E-01  0.1776119E+07 -0.1541461E+01  0.2003284E-04  0.1546991E+01
  0.7199999E+00  0.4262944E+06 -0.1538684E+01  0.9208801E-01  0.2581398E+01  0.1653752E+07 -0.2158896E+00  0.3965258E+01 -0.1565875E+00  0.3823344E+07 -0.1538719E+01  0.6472719E-03 -0.1136593E+01  0.4230992E+06 -0.1538741E+01  0.1526940E+00 -0.2355278E+01  0.9891166E+06  0.2921541E+01  0.6006091E+01 -0.1326208E-01  0.1865474E+07 -0.1538194E+01  0.2212031E-04  0.1441094E+01
  0.7399999E+00  0.4444077E+06 -0.1535756E+01  0.2287273E+00 -0.9156329E-02  0.1604934E+07 -0.2384681E+00  0.3458850E+01  0.1686494E-01  0.3952411E+07 -0.1535753E+01  0.4782749E-03 -0.1950567E+01  0.4288243E+06 -0.1535750E+01  0.3293137E+00  0.3070101E+01  0.9591009E+06  0.2908872E+01  0.1341988E+02  0.3084447E+01  0.1960477E+07 -0.1535563E+01  0.6827271E-05  0.2709185E+01
  0.7599999E+00  0.4624686E+06 -0.1532819E+01  0.2355624E+00 -0.2934239E+01  0.1566609E+07 -0.2606862E+00  0.3222989E+01 -0.1642139E+00  0.4082182E+07 -0.1532692E+01  0.5871627E-03 -0.1425748E+01  0.4331131E+06 -0.1532860E+01  0.9298111E-01  0.1265154E+01  0.9259948E+06  0.2885396E+01  0.2068130E+02 -0.3069977E+01  0.2052328E+07 -0.1532772E+01  0.2296751E-04 -0.1487655E+01
  0.7800000E+00  0.4802412E+06 -0.1529847E+01  0.5408873E-01 -0.1021475E+01  0.1521619E+07 -0.2860146E+00  0.4946451E+00 -0.7324418E+00  0.4200190E+07 -0.1529830E+01  0.1163203E-03  0.5730563E+00  0.4365509E+06 -0.1529984E+01  0.9041071E-01 -0.2706085E+01  0.8920206E+06  0.2860972E+01  0.3772116E+01 -0.2775472E+01  0.2150234E+07 -0.1529886E+01  0.7629395E-05  0.1570796E+01
  0.8000000E+00  0.4970510E+06 -0.1527148E+01  0.9488739E-01 -0.3431483E+00  0.1477063E+07 -0.3124214E+00  0.3395647E+01  0.2973163E+01  0.4308999E+07 -0.1527184E+01  0.8384144E-03 -0.1635199E+01  0.4387154E+06 -0.1527337E+01  0.1028084E+00  0.2055133E+01  0.8557517E+06  0.2833432E+01  0.1522521E+02  0.3125536E+01  0.2250308E+07 -0.1526996E+01  0.3248098E-04  0.1512040E+01
  0.8200000E+00  0.5131027E+06 -0.1524706E+01  0.9312601E-01  0.2757718E+00  0.1432995E+07 -0.3401846E+00  0.6068456E+01  0.3123990E+01  0.4407724E+07 -0.1524789E+01  0.2250861E-02 -0.1552288E+01  0.4396570E+06 -0.1524892E+01  0.1648976E+00 -0.2730210E+00  0.8173860E+06  0.2801652E+01  0.3272204E+01 -0.2726770E+01  0.2349806E+07 -0.1524028E+01  0.3814995E-04 -0.1583295E+01
  0.8399999E+00  0.5284739E+06 -0.1522699E+01  0.1155159E+00 -0.2837508E+01  0.1389582E+07 -0.3692713E+00  0.6874084E+01  0.2920011E+01  0.4496156E+07 -0.1522763E+01  0.4529718E-03  0.2497452E+01  0.4394997E+06 -0.1522737E+01  0.2070133E+00 -0.2915561E+01  0.7765117E+06  0.2763780E+01  0.4632671E+01  0.3048674E+01  0.2450597E+07 -0.1520900E+01  0.2772224E-04 -0.1639653E+01
  0.8600000E+00  0.5430290E+06 -0.1521154E+01  0.6912804E+00 -0.7570067E-01  0.1350227E+07 -0.3976299E+00  0.1948862E+01 -0.2935478E+01  0.4576129E+07 -0.1521123E+01  0.1640999E-02 -0.1647239E+01  0.4381589E+06 -0.1520986E+01  0.5503827E+00 -0.2434925E+00  0.7360039E+06  0.2750341E+01  0.7640574E+01  0.1436215E+00  0.2544743E+07 -0.1520034E+01  0.1907349E-05  0.1570796E+01
  0.8799999E+00  0.5568461E+06 -0.1519920E+01  0.4071748E+00  0.3124056E+01  0.1314541E+07 -0.4260003E+00  0.2871711E+01 -0.2758257E+01  0.4650457E+07 -0.1519748E+01  0.1654962E-02  0.1633708E+01  0.4355823E+06 -0.1519859E+01  0.5768407E-01  0.8909896E-01  0.7013824E+06  0.2724724E+01  0.2848702E+01  0.2247604E+01  0.2628686E+07 -0.1519536E+01  0.6675721E-05  0.1570796E+01
  0.9000000E+00  0.5695239E+06 -0.1519106E+01  0.1516770E+00 -0.2754779E+01  0.1276264E+07 -0.4575275E+00  0.1598022E+01 -0.7228336E-01  0.4710174E+07 -0.1519176E+01  0.1599029E-02  0.1523278E+01  0.4324310E+06 -0.1519347E+01  0.7269116E-01 -0.2079831E+01  0.6669028E+06  0.2698048E+01  0.2221624E+01  0.7552781E+00  0.2719163E+07 -0.1519346E+01  0.2769352E-04 -0.1622474E+01
  0.9200000E+00  0.5808506E+06 -0.1519289E+01  0.7057194E-01 -0.2452343E+00  0.1238642E+07 -0.4898903E+00  0.1024224E+02  0.3621820E-01  0.4758008E+07 -0.1519387E+01  0.9000720E-03 -0.1505424E+01  0.4282506E+06 -0.1519642E+01  0.4098368E-01  0.2803246E+01  0.6322639E+06  0.2667951E+01  0.3826712E+01 -0.1441157E+01  0.2807966E+07 -0.1519480E+01  0.1058751E-04  0.1706325E+01
  0.9400000E+00  0.5911624E+06 -0.1520362E+01  0.3790763E+00  0.7854361E-02  0.1201824E+07 -0.5233490E+00  0.7153272E+00 -0.1251325E+01  0.4793940E+07 -0.1520450E+01  0.5457075E-03 -0.1405420E+01  0.4231669E+06 -0.1520675E+01  0.1677644E+00  0.1243475E+01  0.5977887E+06  0.2633132E+01  0.8426565E+01  0.7927457E-01  0.2890979E+07 -0.1519971E+01  0.6679977E-05 -0.1606496E+01
  0.9599999E+00  0.6003492E+06 -0.1522373E+01  0.4423845E+00 -0.1421047E+00  0.1165883E+07 -0.5578833E+00  0.2018162E+01 -0.2370396E+01  0.4818190E+07 -0.1522476E+01  0.1730392E-02  0.1490163E+01  0.4171092E+06 -0.1522620E+01  0.1014732E+00 -0.2826863E+01  0.5633114E+06  0.2590604E+01  0.9551892E+01  0.2750717E+01  0.2967170E+07 -0.1520760E+01  0.5560829E-05 -0.2111216E+01
  0.9799999E+00  0.6082998E+06 -0.1525357E+01  0.5285237E+00  0.2854139E+01  0.1130547E+07 -0.5936567E+00  0.1398111E+01 -0.2733956E+01  0.4830932E+07 -0.1525534E+01  0.2988853E-03  0.1220812E+01  0.4104789E+06 -0.1525356E+01  0.3498135E-01 -0.2623057E+01  0.5226524E+06  0.2561690E+01  0.1623724E+02 -0.3005109E+01  0.3039953E+07 -0.1523518E+01  0.2288943E-04 -0.1560380E+01
  0.9999999E+00  0.6150515E+06 -0.1529536E+01  0.5310500E+00  0.3005455E+01  0.1099996E+07 -0.6261672E+00  0.1411420E+01  0.2400239E+01  0.4837407E+07 -0.1529218E+01  0.1204997E-02  0.1845090E+01  0.4029143E+06 -0.1529438E+01  0.4342923E+00 -0.2283635E+01  0.4894092E+06  0.2519301E+01  0.1500019E+01  0.6466562E+00  0.3104213E+07 -0.1526203E+01  0.2534422E-05  0.8519669E+00
  0.1020000E+01  0.6207119E+06 -0.1534591E+01  0.3557239E+00  0.2682132E+01  0.1068082E+07 -0.6621363E+00  0.1279149E+01  0.2840004E+01  0.4831040E+07 -0.1534293E+01  0.1952900E-02  0.1546884E+01  0.3948981E+06 -0.1534553E+01  0.2181344E+00 -0.1839069E+01  0.4598582E+06  0.2500319E+01  0.1019428E+02  0.1254201E-01  0.3142904E+07 -0.1534397E+01  0.7637772E-05 -0.1523956E+01
  0.1040000E+01  0.6251846E+06 -0.1540728E+01  0.3124605E+00  0.2130994E+01  0.1036844E+07 -0.6997435E+00  0.4570398E+01  0.2857464E+00  0.4813850E+07 -0.1540724E+01  0.1240991E-02  0.1415079E+01  0.3865353E+06 -0.1540920E+01  0.1553699E+00  0.3744055E+00  0.4313798E+06  0.2476913E+01  0.5594347E+01  0.3024614E+01  0.3183426E+07 -0.1542168E+01  0.3860982E-05 -0.1725793E+01
  0.1060000E+01  0.6283226E+06 -0.1548522E+01  0.1552018E+00 -0.9578613E+00  0.1006093E+07 -0.7379579E+00  0.2714664E+01  0.1549954E-02  0.4786740E+07 -0.1548599E+01  0.1068139E-03 -0.1863479E+00  0.3776238E+06 -0.1548793E+01  0.2975550E+00 -0.5419559E+00  0.4039510E+06  0.2449636E+01  0.4991554E+01 -0.2323335E+01  0.3217568E+07 -0.1550535E+01  0.5727011E-05  0.1612439E+01
  0.1080000E+01  0.6303087E+06 -0.1557709E+01  0.1507167E+00 -0.1089759E+01  0.9761159E+06 -0.7770914E+00  0.2587041E+01  0.2838577E+00  0.4750027E+07 -0.1557870E+01  0.4493375E-03 -0.1436680E+01  0.3683968E+06 -0.1557960E+01  0.3210491E+00  0.3058478E+01  0.3779032E+06  0.2416642E+01  0.1353678E+02  0.2996570E+01  0.3243634E+07 -0.1559708E+01  0.5727010E-05  0.1612439E+01
  0.1100000E+01  0.6311728E+06 -0.1568465E+01  0.1864024E+00 -0.1713222E+01  0.9469335E+06 -0.8171611E+00  0.2409858E+01 -0.8214511E+00  0.4704724E+07 -0.1568598E+01  0.1807386E-03  0.6629504E-01  0.3586834E+06 -0.1568429E+01  0.7843395E-01  0.3175983E+00  0.3534978E+06  0.2373066E+01  0.2517666E+01 -0.9078657E+00  0.3260169E+07 -0.1569407E+01  0.6675720E-05 -0.1570796E+01
  0.1120000E+01  0.6309914E+06 -0.1580753E+01  0.1918241E+00  0.6605246E+00  0.9185955E+06 -0.8581216E+00  0.3436655E+01 -0.2040956E+00  0.4651552E+07 -0.1580868E+01  0.5362854E-03  0.1666742E+01  0.3489915E+06 -0.1580174E+01  0.1370806E+00 -0.2663851E+01  0.3313146E+06  0.2312772E+01  0.1015621E+02 -0.1710071E+00  0.3274071E+07 -0.1578866E+01  0.9539723E-05 -0.1545801E+01
  0.1140000E+01  0.6298488E+06 -0.1594550E+01  0.1309350E+00 -0.2887993E+01  0.8912308E+06 -0.8994368E+00  0.3343116E+01  0.2890106E+01  0.4591776E+07 -0.1594690E+01  0.1988239E-03 -0.2232270E+01  0.3391949E+06 -0.1593856E+01  0.2943396E+00  0.2487412E+01  0.3042615E+06  0.2250613E+01  0.1012040E+01 -0.3056393E+01  0.3287475E+07 -0.1589792E+01  0.9830250E-06 -0.1325818E+01
  0.1160000E+01  0.6277839E+06 -0.1610046E+01  0.4541999E+00  0.7444569E-01  0.8648153E+06 -0.9393135E+00  0.2376949E+00 -0.1644901E-01  0.4528382E+07 -0.1609526E+01  0.1003749E-02  0.1472212E+01  0.3290729E+06 -0.1609644E+01  0.1844524E+00 -0.1525945E+01  0.2826502E+06  0.2212400E+01  0.1450052E+02 -0.1425820E+00  0.3281185E+07 -0.1605153E+01  0.2227013E-05 -0.1841743E+01
  0.1180000E+01  0.6249443E+06 -0.1626753E+01  0.8700828E-01 -0.8984382E+00  0.8389654E+06 -0.9823009E+00  0.3690717E+01  0.3097852E+01  0.4457160E+07 -0.1626470E+01  0.1770430E-02  0.1487987E+01  0.3191298E+06 -0.1626450E+01  0.2465871E+00 -0.3777231E+00  0.2591706E+06  0.2201205E+01  0.1161003E+02  0.2067546E+00  0.3257172E+07 -0.1629327E+01  0.7633119E-06  0.2466852E+01
  0.1200000E+01  0.6213750E+06 -0.1645197E+01  0.1967870E+00  0.2381093E+01  0.8138624E+06 -0.1026080E+01  0.4132679E+01  0.2825830E+01  0.4381136E+07 -0.1645124E+01  0.6253513E-03 -0.1828326E+01  0.3093111E+06 -0.1644486E+01  0.4143455E+00  0.2600818E+00  0.2378049E+06  0.2184858E+01  0.3864970E+01  0.1447027E+01  0.3233719E+07 -0.1651156E+01  0.1668930E-05  0.1570796E+01
  0.1220000E+01  0.6170633E+06 -0.1665521E+01  0.2609417E+00 -0.3002050E+00  0.7891626E+06 -0.1070614E+01  0.3138087E+01  0.2822497E+01  0.4300658E+07 -0.1665487E+01  0.2525969E-02  0.1686406E+01  0.2994837E+06 -0.1664143E+01  0.2377350E+00 -0.2369279E+01  0.2181884E+06  0.2163830E+01  0.1049405E+02 -0.3492298E-01  0.3205250E+07 -0.1673061E+01  0.1884864E-05 -0.1892547E+01
  0.1240000E+01  0.6122480E+06 -0.1687496E+01  0.1580981E+00 -0.2456158E+01  0.7650972E+06 -0.1115943E+01  0.5843991E+01 -0.2785161E+00  0.4216184E+07 -0.1687430E+01  0.3332464E-03  0.2116664E+01  0.2897968E+06 -0.1685213E+01  0.1953136E+00  0.3562694E+00  0.2005856E+06  0.2135542E+01  0.7255167E+01 -0.3673711E+00  0.3171185E+07 -0.1695983E+01  0.1735713E-05  0.1292497E+01
  0.1260000E+01  0.6067099E+06 -0.1711088E+01  0.1635126E+00 -0.2527197E+01  0.7416262E+06 -0.1162096E+01  0.3412269E+01  0.1262200E+00  0.4128906E+07 -0.1711031E+01  0.1025352E-02 -0.1958717E+01  0.2802134E+06 -0.1708179E+01  0.3095673E+00 -0.2837668E+01  0.1855737E+06  0.2093420E+01  0.5663606E+01 -0.2486785E+01  0.3132779E+07 -0.1720014E+01  0.2175366E-05 -0.1735945E+01
  0.1280000E+01  0.6005454E+06 -0.1736354E+01  0.5789678E-01 -0.6618192E+00  0.7187758E+06 -0.1209095E+01  0.2347238E+01 -0.4897313E+00  0.4039407E+07 -0.1736311E+01  0.4547478E-03 -0.1681699E+01  0.2709207E+06 -0.1733023E+01  0.3479583E+00 -0.2449286E+01  0.1740047E+06  0.2029958E+01  0.5241014E+01  0.2210787E+00  0.3092571E+07 -0.1743775E+01  0.3371748E-06 -0.2356194E+01
  0.1300000E+01  0.5939972E+06 -0.1763267E+01  0.1959174E+00  0.6177736E+00  0.6966497E+06 -0.1256981E+01  0.1904755E+01 -0.3004217E+01  0.3947842E+07 -0.1763185E+01  0.7052355E-03  0.2105498E+01  0.2618631E+06 -0.1759139E+01  0.4442307E+00 -0.2844195E+01  0.1671580E+06  0.1938974E+01  0.1725664E+02  0.3057142E+01  0.3049202E+07 -0.1765484E+01  0.2665602E-06  0.2034445E+01
  0.1320000E+01  0.5871089E+06 -0.1791864E+01  0.1137925E+00  0.2925616E+01  0.6751902E+06 -0.1305405E+01  0.1243634E+01 -0.2800469E+01  0.3855209E+07 -0.1791673E+01  0.2321639E-02  0.1593599E+01  0.2529764E+06 -0.1786988E+01  0.3322169E+00 -0.8401874E+00  0.1603333E+06  0.1839375E+01  0.1857438E+02 -0.3059437E+01  0.3003487E+07 -0.1784739E+01  0.4298151E-06  0.2158799E+01
  0.1340000E+01  0.5797754E+06 -0.1822172E+01  0.5532093E+00  0.2759600E+01  0.6539319E+06 -0.1354063E+01  0.1579544E+01  0.1395968E+00  0.3762301E+07 -0.1821549E+01  0.6924571E-03  0.1441553E+01  0.2441410E+06 -0.1816890E+01  0.1236718E+00 -0.3794591E+00  0.1473720E+06  0.1797552E+01  0.3203484E+01 -0.2321020E+01  0.2951065E+07 -0.1814651E+01  0.1279766E-05 -0.1086318E+01
  0.1360000E+01  0.5720732E+06 -0.1853925E+01  0.1147159E+00 -0.1173868E-01  0.6334272E+06 -0.1404364E+01  0.2569905E+01 -0.2429407E+01  0.3668365E+07 -0.1853364E+01  0.2956168E-02  0.1615689E+01  0.2357711E+06 -0.1847835E+01  0.7472879E-01 -0.4850862E+00  0.1301107E+06  0.1778511E+01  0.1509509E+01  0.1239581E+01  0.2904619E+07 -0.1856322E+01  0.4298151E-06 -0.9827939E+00
  0.1380000E+01  0.5641359E+06 -0.1887308E+01  0.2304928E+00 -0.2148407E+01  0.6135170E+06 -0.1455348E+01  0.1611991E+01  0.2885927E+01  0.3574180E+07 -0.1886799E+01  0.6255346E-03 -0.1489865E+01  0.2277012E+06 -0.1879983E+01  0.8010726E-01 -0.5488632E+00  0.1149163E+06  0.1755970E+01  0.4498880E+01  0.4965265E-01  0.2856873E+07 -0.1895706E+01  0.4872019E-06 -0.2732685E+01
  0.1400000E+01  0.5559993E+06 -0.1922434E+01  0.1609276E+00 -0.2856720E+01  0.5940079E+06 -0.1507258E+01  0.2085068E+01 -0.2151704E+01  0.3480178E+07 -0.1921827E+01  0.6154092E-03 -0.7307156E+00  0.2198825E+06 -0.1913531E+01  0.1412693E+00  0.6735314E+00  0.1015940E+06  0.1728444E+01  0.3892274E+01 -0.2764342E+01  0.2806760E+07 -0.1933904E+01  0.3238218E-06 -0.4018710E+00
  0.1420000E+01  0.5477845E+06 -0.1959048E+01  0.2171912E+00  0.8707801E+00  0.5750218E+06 -0.1559904E+01  0.3491492E+01  0.5565068E+00  0.3385959E+07 -0.1958427E+01  0.3704884E-02  0.1310312E+01  0.2121305E+06 -0.1948523E+01  0.1383382E+00 -0.6475691E+00  0.9020345E+05  0.1693669E+01  0.3376060E+01  0.6705369E+00  0.2752448E+07 -0.1973049E+01  0.7538100E-06 -0.7172029E+00
  0.1440000E+01  0.5393741E+06 -0.1997093E+01  0.7111676E-01 -0.5900562E+00  0.5565328E+06 -0.1613356E+01  0.6807130E+00 -0.1808991E+01  0.3292393E+07 -0.1996459E+01  0.1434827E-02  0.1532119E+01  0.2049147E+06 -0.1984138E+01  0.2029586E+00  0.1261368E+01  0.8132688E+05  0.1645755E+01  0.1323614E+01  0.1923104E+01  0.2700734E+07 -0.2012263E+01  0.2425733E-06 -0.1385448E+01
  0.1460000E+01  0.5307118E+06 -0.2036726E+01  0.4784894E-01 -0.1377907E+01  0.5384855E+06 -0.1667696E+01  0.4890136E+01  0.1494993E+00  0.3200059E+07 -0.2035963E+01  0.1569934E-02  0.2276847E+01  0.1978100E+06 -0.2022265E+01  0.1770618E+00  0.1564263E+01  0.7554319E+05  0.1578633E+01  0.7711212E+01 -0.9205418E-01  0.2645561E+07 -0.2052108E+01  0.1794337E-06  0.8314124E-01
  0.1480000E+01  0.5219832E+06 -0.2077728E+01  0.1154674E+00  0.1467604E+01  0.5209505E+06 -0.1722891E+01  0.1051016E+01 -0.6459110E+00  0.3108552E+07 -0.2076967E+01  0.4439508E-03  0.1351358E+01  0.1912029E+06 -0.2061972E+01  0.1846736E+00  0.2461073E+01  0.7365131E+05  0.1491120E+01  0.1205499E+01 -0.2027473E+01  0.2589260E+07 -0.2090833E+01  0.3816560E-06 -0.2466852E+01
  0.1500000E+01  0.5131936E+06 -0.2120273E+01  0.1197414E+00 -0.2972346E+01  0.5039902E+06 -0.1779047E+01  0.6229002E+00 -0.2309146E+01  0.3018488E+07 -0.2119387E+01  0.1030405E-02  0.1510643E+01  0.1848184E+06 -0.2102620E+01  0.8348144E-01 -0.5825855E+00  0.7637284E+05  0.1389342E+01  0.4511761E+01  0.3359491E+00  0.2526015E+07 -0.2126653E+01  0.5213277E-06  0.2111216E+01
  0.1520000E+01  0.5043390E+06 -0.2164351E+01  0.1134192E+00  0.3947542E+00  0.4876239E+06 -0.1836011E+01  0.2074244E+01  0.1805404E+01  0.2930000E+07 -0.2163196E+01  0.2752441E-02  0.1509123E+01  0.1787727E+06 -0.2144606E+01  0.1173688E+00  0.2611090E+01  0.8181730E+05  0.1290981E+01  0.1768229E+01 -0.3108136E+00  0.2455268E+07 -0.2158673E+01  0.1932848E-06  0.2051684E+01
  0.1540000E+01  0.4953901E+06 -0.2209770E+01  0.2222437E+00 -0.1731077E+01  0.4714623E+06 -0.1893796E+01  0.1598903E+01 -0.2184515E+01  0.2842847E+07 -0.2208440E+01  0.8129822E-03 -0.1978766E+01  0.1728697E+06 -0.2188741E+01  0.3504112E+00  0.2832940E+01  0.7851992E+05  0.1231177E+01  0.6870356E+01  0.1406411E+00  0.2387540E+07 -0.2196095E+01  0.3013573E-06 -0.1488899E+00
  0.1560000E+01  0.4864080E+06 -0.2256705E+01  0.1289815E+00  0.1933737E+01  0.4555595E+06 -0.1952908E+01  0.1893197E+01  0.3007319E+01  0.2757514E+07 -0.2255137E+01  0.1125050E-02 -0.9726712E+00  0.1672420E+06 -0.2233670E+01  0.6080632E-01  0.4583642E+00  0.6741822E+05  0.1176575E+01  0.1007919E+02  0.1490199E+00  0.2357824E+07 -0.2248910E+01  0.4770699E-06 -0.2525544E+00