VARIABLES="X" "Y" "Z" "NX" "NY" "NZ" "A"
 ZONE N=        5000 , E=        1250  , F=FEPOINT,ET=QUADRILATERAL
   0.2840500E+00   0.3302000E-01  -0.4991820E+01   0.0000000E+00   0.0000000E+00   0.0000000E+00   0.0000000E+00
   0.2854900E+00   0.1635000E-01  -0.4991820E+01   0.0000000E+00   0.0000000E+00   0.0000000E+00   0.0000000E+00
   0.0000000E+00   0.0000000E+00  -0.5000000E+01   0.0000000E+00   0.0000000E+00   0.0000000E+00   0.0000000E+00
   0.2854900E+00   0.1635000E-01  -0.4991820E+01   0.0000000E+00   0.0000000E+00   0.0000000E+00   0.0000000E+00
   0.2815700E+00   0.4991000E-01  -0.4991820E+01   0.0000000E+00   0.0000000E+00   0.0000000E+00   0.0000000E+00
   0.2840500E+00   0.3302000E-01  -0.4991820E+01   0.0000000E+00   0.0000000E+00   0.0000000E+00   0.0000000E+00
   0.0000000E+00   0.0000000E+00  -0.5000000E+01   0.0000000E+00   0.0000000E+00   0.0000000E+00   0.0000000E+00
   0.2840500E+00   0.3302000E-01  -0.4991820E+01   0.0000000E+00   0.0000000E+00   0.0000000E+00   0.0000000E+00
   0.2780200E+00   0.6694000E-01  -0.4991820E+01   0.0000000E+00   0.0000000E+00   0.0000000E+00   0.0000000E+00
   0.2815700E+00   0.4991000E-01  -0.4991820E+01   0.0000000E+00   0.0000000E+00   0.0000000E+00   0.0000000E+00
   0.0000000E+00   0.0000000E+00  -0.5000000E+01   0.0000000E+00   0.0000000E+00   0.0000000E+00   0.0000000E+00
   0.2815700E+00   0.4991000E-01  -0.4991820E+01   0.0000000E+00   0.0000000E+00   0.0000000E+00   0.0000000E+00
   0.2733400E+00   0.8402000E-01  -0.4991820E+01   0.0000000E+00   0.0000000E+00   0.0000000E+00   0.0000000E+00
   0.2780200E+00   0.6694000E-01  -0.4991820E+01   0.0000000E+00   0.0000000E+00   0.0000000E+00   0.0000000E+00
   0.0000000E+00   0.0000000E+00  -0.5000000E+01   0.0000000E+00   0.0000000E+00   0.0000000E+00   0.0000000E+00
   0.2780200E+00   0.6694000E-01  -0.4991820E+01   0.0000000E+00   0.0000000E+00   0.0000000E+00   0.0000000E+00
   0.2675200E+00   0.1010300E+00  -0.4991820E+01   0.0000000E+00   0.0000000E+00   0.0000000E+00   0.0000000E+00
   0.2733400E+00   0.8402000E-01  -0.4991820E+01   0.0000000E+00   0.0000000E+00   0.0000000E+00   0.0000000E+00
   0.0000000E+00   0.0000000E+00  -0.5000000E+01   0.0000000E+00   0.0000000E+00   0.0000000E+00   0.0000000E+00
   0.2733400E+00   0.8402000E-01  -0.4991820E+01   0.0000000E+00   0.0000000E+00   0.0000000E+00   0.0000000E+00
   0.2605400E+00   0.1178700E+00  -0.4991820E+01   0.0000000E+00   0.0000000E+00   0.0000000E+00   0.0000000E+00
   0.2675200E+00   0.1010300E+00  -0.4991820E+01   0.0000000E+00   0.0000000E+00   0.0000000E+00   0.0000000E+00
   0.0000000E+00   0.0000000E+00  -0.5000000E+01   0.0000000E+00   0.0000000E+00   0.0000000E+00   0.0000000E+00
   0.2675200E+00   0.1010300E+00  -0.4991820E+01   0.0000000E+00   0.0000000E+00   0.0000000E+00   0.0000000E+00
   0.2524000E+00   0.1344200E+00  -0.4991820E+01   0.0000000E+00   0.0000000E+00   0.0000000E+00   0.0000000E+00
   0.2605400E+00   0.1178700E+00  -0.4991820E+01   0.0000000E+00   0.0000000E+00   0.0000000E+00   0.0000000E+00
   0.0000000E+00   0.0000000E+00  -0.5000000E+01   0.0000000E+00   0.0000000E+00   0.0000000E+00   0.0000000E+00
   0.2605400E+00   0.1178700E+00  -0.4991820E+01   0.0000000E+00   0.0000000E+00   0.0000000E+00   0.0000000E+00
   0.2431200E+00   0.1505600E+00  -0.4991820E+01   0.0000000E+00   0.0000000E+00   0.0000000E+00   0.0000000E+00
   0.2524000E+00   0.1344200E+00  -0.4991820E+01   0.0000000E+00   0.0000000E+00   0.0000000E+00   0.0000000E+00
   0.0000000E+00   0.0000000E+00  -0.5000000E+01   0.0000000E+00   0.0000000E+00   0.0000000E+00   0.0000000E+00
   0.2524000E+00   0.1344200E+00  -0.4991820E+01   0.0000000E+00   0.0000000E+00   0.0000000E+00   0.0000000E+00
   0.2327200E+00   0.1661700E+00  -0.4991820E+01   0.0000000E+00   0.0000000E+00   0.0000000E+00   0.0000000E+00
   0.2431200E+00   0.1505600E+00  -0.4991820E+01   0.0000000E+00   0.0000000E+00   0.0000000E+00   0.0000000E+00
   0.0000000E+00   0.0000000E+00  -0.5000000E+01   0.0000000E+00   0.0000000E+00   0.0000000E+00   0.0000000E+00
   0.2431200E+00   0.1505600E+00  -0.4991820E+01   0.0000000E+00   0.0000000E+00   0.0000000E+00   0.0000000E+00
   0.2212600E+00   0.1811600E+00  -0.4991820E+01   0.0000000E+00   0.0000000E+00   0.0000000E+00   0.0000000E+00
   0.2327200E+00   0.1661700E+00  -0.4991820E+01   0.0000000E+00   0.0000000E+00   0.0000000E+00   0.0000000E+00
   0.0000000E+00   0.0000000E+00  -0.5000000E+01   0.0000000E+00   0.0000000E+00   0.0000000E+00   0.0000000E+00
   0.2327200E+00   0.1661700E+00  -0.4991820E+01   0.0000000E+00   0.0000000E+00   0.0000000E+00   0.0000000E+00
   0.2087900E+00   0.1954000E+00  -0.4991820E+01   0.0000000E+00   0.0000000E+00   0.0000000E+00   0.0000000E+00
   0.2212600E+00   0.1811600E+00  -0.4991820E+01   0.0000000E+00   0.0000000E+00   0.0000000E+00   0.0000000E+00
   0.0000000E+00   0.0000000E+00  -0.5000000E+01   0.0000000E+00   0.0000000E+00   0.0000000E+00   0.0000000E+00
   0.2212600E+00   0.1811600E+00  -0.4991820E+01   0.0000000E+00   0.0000000E+00   0.0000000E+00   0.0000000E+00
   0.1954000E+00   0.2087900E+00  -0.4991820E+01   0.0000000E+00   0.0000000E+00   0.0000000E+00   0.0000000E+00
   0.2087900E+00   0.1954000E+00  -0.4991820E+01   0.0000000E+00   0.0000000E+00   0.0000000E+00   0.0000000E+00
   0.0000000E+00   0.0000000E+00  -0.5000000E+01   0.0000000E+00   0.0000000E+00   0.0000000E+00   0.0000000E+00
   0.2087900E+00   0.1954000E+00  -0.4991820E+01   0.0000000E+00   0.0000000E+00   0.0000000E+00   0.0000000E+00
   0.1811600E+00   0.2212600E+00  -0.4991820E+01   0.0000000E+00   0.0000000E+00   0.0000000E+00   0.0000000E+00
   0.1954000E+00   0.2087900E+00  -0.4991820E+01   0.0000000E+00   0.0000000E+00   0.0000000E+00   0.0000000E+00
   0.0000000E+00   0.0000000E+00  -0.5000000E+01   0.0000000E+00   0.0000000E+00   0.0000000E+00   0.0000000E+00
   0.1954000E+00   0.2087900E+00  -0.4991820E+01   0.0000000E+00   0.0000000E+00   0.0000000E+00   0.0000000E+00
   0.1661700E+00   0.2327200E+00  -0.4991820E+01   0.0000000E+00   0.0000000E+00   0.0000000E+00   0.0000000E+00
   0.1811600E+00   0.2212600E+00  -0.4991820E+01   0.0000000E+00   0.0000000E+00   0.0000000E+00   0.0000000E+00
   0.0000000E+00   0.0000000E+00  -0.5000000E+01   0.0000000E+00   0.0000000E+00   0.0000000E+00   0.0000000E+00
   0.1811600E+00   0.2212600E+00  -0.4991820E+01   0.0000000E+00   0.0000000E+00   0.0000000E+00   0.0000000E+00
   0.1505600E+00   0.2431200E+00  -0.4991820E+01   0.0000000E+00   0.0000000E+00   0.0000000E+00   0.0000000E+00
   0.1661700E+00   0.2327200E+00  -0.4991820E+01   0.0000000E+00   0.0000000E+00   0.0000000E+00   0.0000000E+00
   0.0000000E+00   0.0000000E+00  -0.5000000E+01   0.0000000E+00   0.0000000E+00   0.0000000E+00   0.0000000E+00
   0.1661700E+00   0.2327200E+00  -0.4991820E+01   0.0000000E+00   0.0000000E+00   0.0000000E+00   0.0000000E+00
   0.1344200E+00   0.2524000E+00  -0.4991820E+01   0.0000000E+00   0.0000000E+00   0.0000000E+00   0.0000000E+00
   0.1505600E+00   0.2431200E+00  -0.4991820E+01   0.0000000E+00   0.0000000E+00   0.0000000E+00   0.0000000E+00
   0.0000000E+00   0.0000000E+00  -0.5000000E+01   0.0000000E+00   0.0000000E+00   0.0000000E+00   0.0000000E+00
   0.1505600E+00   0.2431200E+00  -0.4991820E+01   0.0000000E+00   0.0000000E+00   0.0000000E+00   0.0000000E+00
   0.1178700E+00   0.2605400E+00  -0.4991820E+01   0.0000000E+00   0.0000000E+00   0.0000000E+00   0.0000000E+00
   0.1344200E+00   0.2524000E+00  -0.4991820E+01   0.0000000E+00   0.0000000E+00   0.0000000E+00   0.0000000E+00
   0.0000000E+00   0.0000000E+00  -0.5000000E+01   0.0000000E+00   0.0000000E+00   0.0000000E+00   0.0000000E+00
   0.1344200E+00   0.2524000E+00  -0.4991820E+01   0.0000000E+00   0.0000000E+00   0.0000000E+00   0.0000000E+00
   0.1010300E+00   0.2675200E+00  -0.4991820E+01   0.0000000E+00   0.0000000E+00   0.0000000E+00   0.0000000E+00
   0.1178700E+00   0.2605400E+00  -0.4991820E+01   0.0000000E+00   0.0000000E+00   0.0000000E+00   0.0000000E+00
   0.0000000E+00   0.0000000E+00  -0.5000000E+01   0.0000000E+00   0.0000000E+00   0.0000000E+00   0.0000000E+00
   0.1178700E+00   0.2605400E+00  -0.4991820E+01   0.0000000E+00   0.0000000E+00   0.0000000E+00   0.0000000E+00
   0.8402000E-01   0.2733400E+00  -0.4991820E+01   0.0000000E+00   0.0000000E+00   0.0000000E+00   0.0000000E+00
   0.1010300E+00   0.2675200E+00  -0.4991820E+01   0.0000000E+00   0.0000000E+00   0.0000000E+00   0.0000000E+00
   0.0000000E+00   0.0000000E+00  -0.5000000E+01   0.0000000E+00   0.0000000E+00   0.0000000E+00   0.0000000E+00
   0.1010300E+00   0.2675200E+00  -0.4991820E+01   0.0000000E+00   0.0000000E+00   0.0000000E+00   0.0000000E+00
   0.6694000E-01   0.2780200E+00  -0.4991820E+01   0.0000000E+00   0.0000000E+00   0.0000000E+00   0.0000000E+00
   0.8402000E-01   0.2733400E+00  -0.4991820E+01   0.0000000E+00   0.0000000E+00   0.0000000E+00   0.0000000E+00
   0.0000000E+00   0.0000000E+00  -0.5000000E+01   0.0000000E+00   0.0000000E+00   0.0000000E+00   0.0000000E+00
   0.8402000E-01   0.2733400E+00  -0.4991820E+01   0.0000000E+00   0.0000000E+00   0.0000000E+00   0.0000000E+00
   0.4991000E-01   0.2815700E+00  -0.4991820E+01   0.0000000E+00   0.0000000E+00   0.0000000E+00   0.0000000E+00
   0.6694000E-01   0.2780200E+00  -0.4991820E+01   0.0000000E+00   0.0000000E+00   0.0000000E+00   0.0000000E+00
   0.0000000E+00   0.0000000E+00  -0.5000000E+01   0.0000000E+00   0.0000000E+00   0.0000000E+00   0.0000000E+00
   0.6694000E-01   0.2780200E+00  -0.4991820E+01   0.0000000E+00   0.0000000E+00   0.0000000E+00   0.0000000E+00
   0.3302000E-01   0.2840500E+00  -0.4991820E+01   0.0000000E+00   0.0000000E+00   0.0000000E+00   0.0000000E+00
   0.4991000E-01   0.2815700E+00  -0.4991820E+01   0.0000000E+00   0.0000000E+00   0.0000000E+00   0.0000000E+00
   0.0000000E+00   0.0000000E+00  -0.5000000E+01   0.0000000E+00   0.0000000E+00   0.0000000E+00   0.0000000E+00
   0.4991000E-01   0.2815700E+00  -0.4991820E+01   0.0000000E+00   0.0000000E+00   0.0000000E+00   0.0000000E+00
   0.1635000E-01   0.2854900E+00  -0.4991820E+01   0.0000000E+00   0.0000000E+00   0.0000000E+00   0.0000000E+00
   0.3302000E-01   0.2840500E+00  -0.4991820E+01   0.0000000E+00   0.0000000E+00   0.0000000E+00   0.0000000E+00
   0.0000000E+00   0.0000000E+00  -0.5000000E+01   0.0000000E+00   0.0000000E+00   0.0000000E+00   0.0000000E+00
   0.3302000E-01   0.2840500E+00  -0.4991820E+01   0.0000000E+00   0.0000000E+00   0.0000000E+00   0.0000000E+00
   0.0000000E+00   0.2859600E+00  -0.4991820E+01   0.0000000E+00   0.0000000E+00   0.0000000E+00   0.0000000E+00
   0.1635000E-01   0.2854900E+00  -0.4991820E+01   0.0000000E+00   0.0000000E+00   0.0000000E+00   0.0000000E+00
   0.0000000E+00   0.0000000E+00  -0.5000000E+01   0.0000000E+00   0.0000000E+00   0.0000000E+00   0.0000000E+00
   0.1635000E-01   0.2854900E+00  -0.4991820E+01   0.0000000E+00   0.0000000E+00   0.0000000E+00   0.0000000E+00
  -0.1635000E-01   0.2854900E+00  -0.4991820E+01   0.0000000E+00   0.0000000E+00   0.0000000E+00   0.0000000E+00
   0.0000000E+00   0.2859600E+00  -0.4991820E+01   0.0000000E+00   0.0000000E+00   0.0000000E+00   0.0000000E+00
   0.0000000E+00   0.0000000E+00  -0.5000000E+01   0.0000000E+00   0.0000000E+00   0.0000000E+00   0.0000000E+00
   0.0000000E+00   0.2859600E+00  -0.4991820E+01   0.0000000E+00   0.0000000E+00   0.0000000E+00   0.0000000E+00
  -0.3302000E-01   0.2840500E+00  -0.4991820E+01   0.0000000E+00   0.0000000E+00   0.0000000E+00   0.0000000E+00
  -0.1635000E-01   0.2854900E+00  -0.4991820E+01   0.0000000E+00   0.0000000E+00   0.0000000E+00   0.0000000E+00
   0.0000000E+00   0.0000000E+00  -0.5000000E+01   0.0000000E+00   0.0000000E+00   0.0000000E+00   0.0000000E+00
  -0.1635000E-01   0.2854900E+00  -0.4991820E+01   0.0000000E+00   0.0000000E+00   0.0000000E+00   0.0000000E+00
  -0.4991000E-01   0.2815700E+00  -0.4991820E+01   0.0000000E+00   0.0000000E+00   0.0000000E+00   0.0000000E+00
  -0.3302000E-01   0.2840500E+00  -0.4991820E+01   0.0000000E+00   0.0000000E+00   0.0000000E+00   0.0000000E+00
   0.0000000E+00   0.0000000E+00  -0.5000000E+01   0.0000000E+00   0.0000000E+00   0.0000000E+00   0.0000000E+00
  -0.3302000E-01   0.2840500E+00  -0.4991820E+01   0.0000000E+00   0.0000000E+00   0.0000000E+00   0.0000000E+00
  -0.6694000E-01   0.2780200E+00  -0.4991820E+01   0.0000000E+00   0.0000000E+00   0.0000000E+00   0.0000000E+00
  -0.4991000E-01   0.2815700E+00  -0.4991820E+01   0.0000000E+00   0.0000000E+00   0.0000000E+00   0.0000000E+00
   0.0000000E+00   0.0000000E+00  -0.5000000E+01   0.0000000E+00   0.0000000E+00   0.0000000E+00   0.0000000E+00
  -0.4991000E-01   0.2815700E+00  -0.4991820E+01   0.0000000E+00   0.0000000E+00   0.0000000E+00   0.0000000E+00
  -0.8402000E-01   0.2733400E+00  -0.4991820E+01   0.0000000E+00   0.0000000E+00   0.0000000E+00   0.0000000E+00
  -0.6694000E-01   0.2780200E+00  -0.4991820E+01   0.0000000E+00   0.0000000E+00   0.0000000E+00   0.0000000E+00
   0.0000000E+00   0.0000000E+00  -0.5000000E+01   0.0000000E+00   0.0000000E+00   0.0000000E+00   0.0000000E+00
  -0.6694000E-01   0.2780200E+00  -0.4991820E+01   0.0000000E+00   0.0000000E+00   0.0000000E+00   0.0000000E+00
  -0.1010300E+00   0.2675200E+00  -0.4991820E+01   0.0000000E+00   0.0000000E+00   0.0000000E+00   0.0000000E+00
  -0.8402000E-01   0.2733400E+00  -0.4991820E+01   0.0000000E+00   0.0000000E+00   0.0000000E+00   0.0000000E+00
   0.0000000E+00   0.0000000E+00  -0.5000000E+01   0.0000000E+00   0.0000000E+00   0.0000000E+00   0.0000000E+00
  -0.8402000E-01   0.2733400E+00  -0.4991820E+01   0.0000000E+00   0.0000000E+00   0.0000000E+00   0.0000000E+00
  -0.1178700E+00   0.2605400E+00  -0.4991820E+01   0.0000000E+00   0.0000000E+00   0.0000000E+00   0.0000000E+00
  -0.1010300E+00   0.2675200E+00  -0.4991820E+01   0.0000000E+00   0.0000000E+00   0.0000000E+00   0.0000000E+00
   0.0000000E+00   0.0000000E+00  -0.5000000E+01   0.0000000E+00   0.0000000E+00   0.0000000E+00   0.0000000E+00
  -0.1010300E+00   0.2675200E+00  -0.4991820E+01   0.0000000E+00   0.0000000E+00   0.0000000E+00   0.0000000E+00
  -0.1344200E+00   0.2524000E+00  -0.4991820E+01   0.0000000E+00   0.0000000E+00   0.0000000E+00   0.0000000E+00
  -0.1178700E+00   0.2605400E+00  -0.4991820E+01   0.0000000E+00   0.0000000E+00   0.0000000E+00   0.0000000E+00
   0.0000000E+00   0.0000000E+00  -0.5000000E+01   0.0000000E+00   0.0000000E+00   0.0000000E+00   0.0000000E+00
  -0.1178700E+00   0.2605400E+00  -0.4991820E+01   0.0000000E+00   0.0000000E+00   0.0000000E+00   0.0000000E+00
  -0.1505600E+00   0.2431200E+00  -0.4991820E+01   0.0000000E+00   0.0000000E+00   0.0000000E+00   0.0000000E+00
  -0.1344200E+00   0.2524000E+00  -0.4991820E+01   0.0000000E+00   0.0000000E+00   0.0000000E+00   0.0000000E+00
   0.0000000E+00   0.0000000E+00  -0.5000000E+01   0.0000000E+00   0.0000000E+00   0.0000000E+00   0.0000000E+00
  -0.1344200E+00   0.2524000E+00  -0.4991820E+01   0.0000000E+00   0.0000000E+00   0.0000000E+00   0.0000000E+00
  -0.1661700E+00   0.2327200E+00  -0.4991820E+01   0.0000000E+00   0.0000000E+00   0.0000000E+00   0.0000000E+00
  -0.1505600E+00   0.2431200E+00  -0.4991820E+01   0.0000000E+00   0.0000000E+00   0.0000000E+00   0.0000000E+00
   0.0000000E+00   0.0000000E+00  -0.5000000E+01   0.0000000E+00   0.0000000E+00   0.0000000E+00   0.0000000E+00
  -0.1505600E+00   0.2431200E+00  -0.4991820E+01   0.0000000E+00   0.0000000E+00   0.0000000E+00   0.0000000E+00
  -0.1811600E+00   0.2212600E+00  -0.4991820E+01   0.0000000E+00   0.0000000E+00   0.0000000E+00   0.0000000E+00
  -0.1661700E+00   0.2327200E+00  -0.4991820E+01   0.0000000E+00   0.0000000E+00   0.0000000E+00   0.0000000E+00
   0.0000000E+00   0.0000000E+00  -0.5000000E+01   0.0000000E+00   0.0000000E+00   0.0000000E+00   0.0000000E+00
  -0.1661700E+00   0.2327200E+00  -0.4991820E+01   0.0000000E+00   0.0000000E+00   0.0000000E+00   0.0000000E+00
  -0.1954000E+00   0.2087900E+00  -0.4991820E+01   0.0000000E+00   0.0000000E+00   0.0000000E+00   0.0000000E+00
  -0.1811600E+00   0.2212600E+00  -0.4991820E+01   0.0000000E+00   0.0000000E+00   0.0000000E+00   0.0000000E+00
   0.0000000E+00   0.0000000E+00  -0.5000000E+01   0.0000000E+00   0.0000000E+00   0.0000000E+00   0.0000000E+00
  -0.1811600E+00   0.2212600E+00  -0.4991820E+01   0.0000000E+00   0.0000000E+00   0.0000000E+00   0.0000000E+00
  -0.2087900E+00   0.1954000E+00  -0.4991820E+01   0.0000000E+00   0.0000000E+00   0.0000000E+00   0.0000000E+00
  -0.1954000E+00   0.2087900E+00  -0.4991820E+01   0.0000000E+00   0.0000000E+00   0.0000000E+00   0.0000000E+00
   0.0000000E+00   0.0000000E+00  -0.5000000E+01   0.0000000E+00   0.0000000E+00   0.0000000E+00   0.0000000E+00
  -0.1954000E+00   0.2087900E+00  -0.4991820E+01   0.0000000E+00   0.0000000E+00   0.0000000E+00   0.0000000E+00
  -0.2212600E+00   0.1811600E+00  -0.4991820E+01   0.0000000E+00   0.0000000E+00   0.0000000E+00   0.0000000E+00
  -0.2087900E+00   0.1954000E+00  -0.4991820E+01   0.0000000E+00   0.0000000E+00   0.0000000E+00   0.0000000E+00
   0.0000000E+00   0.0000000E+00  -0.5000000E+01   0.0000000E+00   0.0000000E+00   0.0000000E+00   0.0000000E+00
  -0.2087900E+00   0.1954000E+00  -0.4991820E+01   0.0000000E+00   0.0000000E+00   0.0000000E+00   0.0000000E+00
  -0.2327200E+00   0.1661700E+00  -0.4991820E+01   0.0000000E+00   0.0000000E+00   0.0000000E+00   0.0000000E+00
  -0.2212600E+00   0.1811600E+00  -0.4991820E+01   0.0000000E+00   0.0000000E+00   0.0000000E+00   0.0000000E+00
   0.0000000E+00   0.0000000E+00  -0.5000000E+01   0.0000000E+00   0.0000000E+00   0.0000000E+00   0.0000000E+00
  -0.2212600E+00   0.1811600E+00  -0.4991820E+01   0.0000000E+00   0.0000000E+00   0.0000000E+00   0.0000000E+00
  -0.2431200E+00   0.1505600E+00  -0.4991820E+01   0.0000000E+00   0.0000000E+00   0.0000000E+00   0.0000000E+00
  -0.2327200E+00   0.1661700E+00  -0.4991820E+01   0.0000000E+00   0.0000000E+00   0.0000000E+00   0.0000000E+00
   0.0000000E+00   0.0000000E+00  -0.5000000E+01   0.0000000E+00   0.0000000E+00   0.0000000E+00   0.0000000E+00
  -0.2327200E+00   0.1661700E+00  -0.4991820E+01   0.0000000E+00   0.0000000E+00   0.0000000E+00   0.0000000E+00
  -0.2524000E+00   0.1344200E+00  -0.4991820E+01   0.0000000E+00   0.0000000E+00   0.0000000E+00   0.0000000E+00
  -0.2431200E+00   0.1505600E+00  -0.4991820E+01   0.0000000E+00   0.0000000E+00   0.0000000E+00   0.0000000E+00
   0.0000000E+00   0.0000000E+00  -0.5000000E+01   0.0000000E+00   0.0000000E+00   0.0000000E+00   0.0000000E+00
  -0.2431200E+00   0.1505600E+00  -0.4991820E+01   0.0000000E+00   0.0000000E+00   0.0000000E+00   0.0000000E+00
  -0.2605400E+00   0.1178700E+00  -0.4991820E+01   0.0000000E+00   0.0000000E+00   0.0000000E+00   0.0000000E+00
  -0.2524000E+00   0.1344200E+00  -0.4991820E+01   0.0000000E+00   0.0000000E+00   0.0000000E+00   0.0000000E+00
   0.0000000E+00   0.0000000E+00  -0.5000000E+01   0.0000000E+00   0.0000000E+00   0.0000000E+00   0.0000000E+00
  -0.2524000E+00   0.1344200E+00  -0.4991820E+01   0.0000000E+00   0.0000000E+00   0.0000000E+00   0.0000000E+00
  -0.2675200E+00   0.1010300E+00  -0.4991820E+01   0.0000000E+00   0.0000000E+00   0.0000000E+00   0.0000000E+00
  -0.2605400E+00   0.1178700E+00  -0.4991820E+01   0.0000000E+00   0.0000000E+00   0.0000000E+00   0.0000000E+00
   0.0000000E+00   0.0000000E+00  -0.5000000E+01   0.0000000E+00   0.0000000E+00   0.0000000E+00   0.0000000E+00
  -0.2605400E+00   0.1178700E+00  -0.4991820E+01   0.0000000E+00   0.0000000E+00   0.0000000E+00   0.0000000E+00
  -0.2733400E+00   0.8402000E-01  -0.4991820E+01   0.0000000E+00   0.0000000E+00   0.0000000E+00   0.0000000E+00
  -0.2675200E+00   0.1010300E+00  -0.4991820E+01   0.0000000E+00   0.0000000E+00   0.0000000E+00   0.0000000E+00
   0.0000000E+00   0.0000000E+00  -0.5000000E+01   0.0000000E+00   0.0000000E+00   0.0000000E+00   0.0000000E+00
  -0.2675200E+00   0.1010300E+00  -0.4991820E+01   0.0000000E+00   0.0000000E+00   0.0000000E+00   0.0000000E+00
  -0.2780200E+00   0.6694000E-01  -0.4991820E+01   0.0000000E+00   0.0000000E+00   0.0000000E+00   0.0000000E+00
  -0.2733400E+00   0.8402000E-01  -0.4991820E+01   0.0000000E+00   0.0000000E+00   0.0000000E+00   0.0000000E+00
   0.0000000E+00   0.0000000E+00  -0.5000000E+01   0.0000000E+00   0.0000000E+00   0.0000000E+00   0.0000000E+00
  -0.2733400E+00   0.8402000E-01  -0.4991820E+01   0.0000000E+00   0.0000000E+00   0.0000000E+00   0.0000000E+00
  -0.2815700E+00   0.4991000E-01  -0.4991820E+01   0.0000000E+00   0.0000000E+00   0.0000000E+00   0.0000000E+00
  -0.2780200E+00   0.6694000E-01  -0.4991820E+01   0.0000000E+00   0.0000000E+00   0.0000000E+00   0.0000000E+00
   0.0000000E+00   0.0000000E+00  -0.5000000E+01   0.0000000E+00   0.0000000E+00   0.0000000E+00   0.0000000E+00
  -0.2780200E+00   0.6694000E-01  -0.4991820E+01   0.0000000E+00   0.0000000E+00   0.0000000E+00   0.0000000E+00
  -0.2840500E+00   0.3302000E-01  -0.4991820E+01   0.0000000E+00   0.0000000E+00   0.0000000E+00   0.0000000E+00
  -0.2815700E+00   0.4991000E-01  -0.4991820E+01   0.0000000E+00   0.0000000E+00   0.0000000E+00   0.0000000E+00
   0.0000000E+00   0.0000000E+00  -0.5000000E+01   0.0000000E+00   0.0000000E+00   0.0000000E+00   0.0000000E+00
  -0.2815700E+00   0.4991000E-01  -0.4991820E+01   0.0000000E+00   0.0000000E+00   0.0000000E+00   0.0000000E+00
  -0.2854900E+00   0.1635000E-01  -0.4991820E+01   0.0000000E+00   0.0000000E+00   0.0000000E+00   0.0000000E+00
  -0.2840500E+00   0.3302000E-01  -0.4991820E+01   0.0000000E+00   0.0000000E+00   0.0000000E+00   0.0000000E+00
   0.0000000E+00   0.0000000E+00  -0.5000000E+01   0.0000000E+00   0.0000000E+00   0.0000000E+00   0.0000000E+00
  -0.2840500E+00   0.3302000E-01  -0.4991820E+01   0.0000000E+00   0.0000000E+00   0.0000000E+00   0.0000000E+00
   0.2840500E+00   0.3302000E-01  -0.4991820E+01   0.0000000E+00   0.0000000E+00   0.0000000E+00   0.0000000E+00
   0.5734600E+00   0.6666000E-01  -0.4966560E+01   0.0000000E+00   0.0000000E+00   0.0000000E+00   0.0000000E+00
   0.2854900E+00   0.1635000E-01  -0.4991820E+01   0.0000000E+00   0.0000000E+00   0.0000000E+00   0.0000000E+00
   0.5763800E+00   0.3302000E-01  -0.4966560E+01   0.0000000E+00   0.0000000E+00   0.0000000E+00   0.0000000E+00
   0.2815700E+00   0.4991000E-01  -0.4991820E+01   0.0000000E+00   0.0000000E+00   0.0000000E+00   0.0000000E+00
   0.5684600E+00   0.1007600E+00  -0.4966560E+01   0.0000000E+00   0.0000000E+00   0.0000000E+00   0.0000000E+00
   0.2840500E+00   0.3302000E-01  -0.4991820E+01   0.0000000E+00   0.0000000E+00   0.0000000E+00   0.0000000E+00
   0.5734600E+00   0.6666000E-01  -0.4966560E+01   0.0000000E+00   0.0000000E+00   0.0000000E+00   0.0000000E+00
   0.2780200E+00   0.6694000E-01  -0.4991820E+01   0.0000000E+00   0.0000000E+00   0.0000000E+00   0.0000000E+00
   0.5612800E+00   0.1351500E+00  -0.4966560E+01   0.0000000E+00   0.0000000E+00   0.0000000E+00   0.0000000E+00
   0.2815700E+00   0.4991000E-01  -0.4991820E+01   0.0000000E+00   0.0000000E+00   0.0000000E+00   0.0000000E+00
   0.5684600E+00   0.1007600E+00  -0.4966560E+01   0.0000000E+00   0.0000000E+00   0.0000000E+00   0.0000000E+00
   0.2733400E+00   0.8402000E-01  -0.4991820E+01   0.0000000E+00   0.0000000E+00   0.0000000E+00   0.0000000E+00
   0.5518400E+00   0.1696200E+00  -0.4966560E+01   0.0000000E+00   0.0000000E+00   0.0000000E+00   0.0000000E+00
   0.2780200E+00   0.6694000E-01  -0.4991820E+01   0.0000000E+00   0.0000000E+00   0.0000000E+00   0.0000000E+00
   0.5612800E+00   0.1351500E+00  -0.4966560E+01   0.0000000E+00   0.0000000E+00   0.0000000E+00   0.0000000E+00
   0.2675200E+00   0.1010300E+00  -0.4991820E+01   0.0000000E+00   0.0000000E+00   0.0000000E+00   0.0000000E+00
   0.5400900E+00   0.2039700E+00  -0.4966560E+01   0.0000000E+00   0.0000000E+00   0.0000000E+00   0.0000000E+00
   0.2733400E+00   0.8402000E-01  -0.4991820E+01   0.0000000E+00   0.0000000E+00   0.0000000E+00   0.0000000E+00
   0.5518400E+00   0.1696200E+00  -0.4966560E+01   0.0000000E+00   0.0000000E+00   0.0000000E+00   0.0000000E+00
   0.2605400E+00   0.1178700E+00  -0.4991820E+01   0.0000000E+00   0.0000000E+00   0.0000000E+00   0.0000000E+00
   0.5260000E+00   0.2379600E+00  -0.4966560E+01   0.0000000E+00   0.0000000E+00   0.0000000E+00   0.0000000E+00
   0.2675200E+00   0.1010300E+00  -0.4991820E+01   0.0000000E+00   0.0000000E+00   0.0000000E+00   0.0000000E+00
   0.5400900E+00   0.2039700E+00  -0.4966560E+01   0.0000000E+00   0.0000000E+00   0.0000000E+00   0.0000000E+00
   0.2524000E+00   0.1344200E+00  -0.4991820E+01   0.0000000E+00   0.0000000E+00   0.0000000E+00   0.0000000E+00
   0.5095700E+00   0.2713700E+00  -0.4966560E+01   0.0000000E+00   0.0000000E+00   0.0000000E+00   0.0000000E+00
   0.2605400E+00   0.1178700E+00  -0.4991820E+01   0.0000000E+00   0.0000000E+00   0.0000000E+00   0.0000000E+00
   0.5260000E+00   0.2379600E+00  -0.4966560E+01   0.0000000E+00   0.0000000E+00   0.0000000E+00   0.0000000E+00
   0.2431200E+00   0.1505600E+00  -0.4991820E+01   0.0000000E+00   0.0000000E+00   0.0000000E+00   0.0000000E+00
   0.4908300E+00   0.3039600E+00  -0.4966560E+01   0.0000000E+00   0.0000000E+00   0.0000000E+00   0.0000000E+00
   0.2524000E+00   0.1344200E+00  -0.4991820E+01   0.0000000E+00   0.0000000E+00   0.0000000E+00   0.0000000E+00
   0.5095700E+00   0.2713700E+00  -0.4966560E+01   0.0000000E+00   0.0000000E+00   0.0000000E+00   0.0000000E+00
   0.2327200E+00   0.1661700E+00  -0.4991820E+01   0.0000000E+00   0.0000000E+00   0.0000000E+00   0.0000000E+00
   0.4698400E+00   0.3354900E+00  -0.4966560E+01   0.0000000E+00   0.0000000E+00   0.0000000E+00   0.0000000E+00
   0.2431200E+00   0.1505600E+00  -0.4991820E+01   0.0000000E+00   0.0000000E+00   0.0000000E+00   0.0000000E+00
   0.4908300E+00   0.3039600E+00  -0.4966560E+01   0.0000000E+00   0.0000000E+00   0.0000000E+00   0.0000000E+00
   0.2212600E+00   0.1811600E+00  -0.4991820E+01   0.0000000E+00   0.0000000E+00   0.0000000E+00   0.0000000E+00
   0.4467000E+00   0.3657300E+00  -0.4966560E+01   0.0000000E+00   0.0000000E+00   0.0000000E+00   0.0000000E+00
   0.2327200E+00   0.1661700E+00  -0.4991820E+01   0.0000000E+00   0.0000000E+00   0.0000000E+00   0.0000000E+00
   0.4698400E+00   0.3354900E+00  -0.4966560E+01   0.0000000E+00   0.0000000E+00   0.0000000E+00   0.0000000E+00
   0.2087900E+00   0.1954000E+00  -0.4991820E+01   0.0000000E+00   0.0000000E+00   0.0000000E+00   0.0000000E+00
   0.4215300E+00   0.3944800E+00  -0.4966560E+01   0.0000000E+00   0.0000000E+00   0.0000000E+00   0.0000000E+00
   0.2212600E+00   0.1811600E+00  -0.4991820E+01   0.0000000E+00   0.0000000E+00   0.0000000E+00   0.0000000E+00
   0.4467000E+00   0.3657300E+00  -0.4966560E+01   0.0000000E+00   0.0000000E+00   0.0000000E+00   0.0000000E+00
   0.1954000E+00   0.2087900E+00  -0.4991820E+01   0.0000000E+00   0.0000000E+00   0.0000000E+00   0.0000000E+00
   0.3944800E+00   0.4215300E+00  -0.4966560E+01   0.0000000E+00   0.0000000E+00   0.0000000E+00   0.0000000E+00
   0.2087900E+00   0.1954000E+00  -0.4991820E+01   0.0000000E+00   0.0000000E+00   0.0000000E+00   0.0000000E+00
   0.4215300E+00   0.3944800E+00  -0.4966560E+01   0.0000000E+00   0.0000000E+00   0.0000000E+00   0.0000000E+00
   0.1811600E+00   0.2212600E+00  -0.4991820E+01   0.0000000E+00   0.0000000E+00   0.0000000E+00   0.0000000E+00
   0.3657300E+00   0.4467000E+00  -0.4966560E+01   0.0000000E+00   0.0000000E+00   0.0000000E+00   0.0000000E+00
   0.1954000E+00   0.2087900E+00  -0.4991820E+01   0.0000000E+00   0.0000000E+00   0.0000000E+00   0.0000000E+00
   0.3944800E+00   0.4215300E+00  -0.4966560E+01   0.0000000E+00   0.0000000E+00   0.0000000E+00   0.0000000E+00
   0.1661700E+00   0.2327200E+00  -0.4991820E+01   0.0000000E+00   0.0000000E+00   0.0000000E+00   0.0000000E+00
   0.3354900E+00   0.4698400E+00  -0.4966560E+01   0.0000000E+00   0.0000000E+00   0.0000000E+00   0.0000000E+00
   0.1811600E+00   0.2212600E+00  -0.4991820E+01   0.0000000E+00   0.0000000E+00   0.0000000E+00   0.0000000E+00
   0.3657300E+00   0.4467000E+00  -0.4966560E+01   0.0000000E+00   0.0000000E+00   0.0000000E+00   0.0000000E+00
   0.1505600E+00   0.2431200E+00  -0.4991820E+01   0.0000000E+00   0.0000000E+00   0.0000000E+00   0.0000000E+00
   0.3039600E+00   0.4908300E+00  -0.4966560E+01   0.0000000E+00   0.0000000E+00   0.0000000E+00   0.0000000E+00
   0.1661700E+00   0.2327200E+00  -0.4991820E+01   0.0000000E+00   0.0000000E+00   0.0000000E+00   0.0000000E+00
   0.3354900E+00   0.4698400E+00  -0.4966560E+01   0.0000000E+00   0.0000000E+00   0.0000000E+00   0.0000000E+00
   0.1344200E+00   0.2524000E+00  -0.4991820E+01   0.0000000E+00   0.0000000E+00   0.0000000E+00   0.0000000E+00
   0.2713700E+00   0.5095700E+00  -0.4966560E+01   0.0000000E+00   0.0000000E+00   0.0000000E+00   0.0000000E+00
   0.1505600E+00   0.2431200E+00  -0.4991820E+01   0.0000000E+00   0.0000000E+00   0.0000000E+00   0.0000000E+00
   0.3039600E+00   0.4908300E+00  -0.4966560E+01   0.0000000E+00   0.0000000E+00   0.0000000E+00   0.0000000E+00
   0.1178700E+00   0.2605400E+00  -0.4991820E+01   0.0000000E+00   0.0000000E+00   0.0000000E+00   0.0000000E+00
   0.2379600E+00   0.5260000E+00  -0.4966560E+01   0.0000000E+00   0.0000000E+00   0.0000000E+00   0.0000000E+00
   0.1344200E+00   0.2524000E+00  -0.4991820E+01   0.0000000E+00   0.0000000E+00   0.0000000E+00   0.0000000E+00
   0.2713700E+00   0.5095700E+00  -0.4966560E+01   0.0000000E+00   0.0000000E+00   0.0000000E+00   0.0000000E+00
   0.1010300E+00   0.2675200E+00  -0.4991820E+01   0.0000000E+00   0.0000000E+00   0.0000000E+00   0.0000000E+00
   0.2039700E+00   0.5400900E+00  -0.4966560E+01   0.0000000E+00   0.0000000E+00   0.0000000E+00   0.0000000E+00
   0.1178700E+00   0.2605400E+00  -0.4991820E+01   0.0000000E+00   0.0000000E+00   0.0000000E+00   0.0000000E+00
   0.2379600E+00   0.5260000E+00  -0.4966560E+01   0.0000000E+00   0.0000000E+00   0.0000000E+00   0.0000000E+00