VARIABLES="w (rad/s)"  
"abs(F   1   1)" "angle(F   1   1)"
"abs(F   1   2)" "angle(F   1   2)"
"abs(F   1   3)" "angle(F   1   3)"
"abs(F   1   4)" "angle(F   1   4)"
"abs(F   1   5)" "angle(F   1   5)"
"abs(F   1   6)" "angle(F   1   6)"
Zone t="Diffraction force - beta =   0.000 deg",I=   128,F=POINT
  0.2500000E-01  0.1961248E+05 -0.1570797E+01  0.2804138E-03 -0.3096238E+01  0.1345896E+04 -0.3141284E+01  0.3061822E-02 -0.5731132E-02  0.3519187E+06 -0.1570866E+01  0.4744778E-05  0.2448091E+00
  0.7204724E-01  0.1585583E+06 -0.1570793E+01  0.8782279E-03 -0.2805743E+01  0.1066778E+05 -0.3139518E+01  0.2423750E+00  0.2201834E-01  0.2920838E+07 -0.1570858E+01  0.3799839E-04 -0.2375077E+00
  0.1190945E+00  0.4112225E+06 -0.1570715E+01  0.4612763E-02  0.2120329E+00  0.2655892E+05 -0.3137868E+01  0.6791250E+00  0.3109637E+01  0.7962440E+07 -0.1570778E+01  0.1481238E-03 -0.9290113E-01
  0.1661417E+00  0.7419098E+06 -0.1570278E+01  0.5427655E-02 -0.2361525E+01  0.4506052E+05 -0.3138128E+01  0.4329315E+00  0.5892694E+00  0.1540789E+08 -0.1570352E+01  0.4255599E-03 -0.3250711E+00
  0.2131890E+00  0.1108570E+07 -0.1568890E+01  0.1923143E-01  0.3083774E+01  0.6214762E+05 -0.3140469E+01  0.1039469E+01 -0.2866991E+01  0.2508963E+08 -0.1569001E+01  0.2410541E-03 -0.3082228E+01
  0.2602362E+00  0.1471224E+07 -0.1565750E+01  0.9540258E-01  0.3022888E+01  0.7484734E+05  0.3139628E+01  0.2031170E+01 -0.2693735E+01  0.3669569E+08 -0.1565931E+01  0.2213246E-03 -0.1075511E+01
  0.3072835E+00  0.1798391E+07 -0.1560049E+01  0.1307319E+00  0.1314063E-01  0.8167732E+05  0.3136978E+01  0.1139971E+01 -0.2898035E+01  0.4975674E+08 -0.1560324E+01  0.9312127E-03 -0.2985888E+01
  0.3543307E+00  0.2070344E+07 -0.1551086E+01  0.2616825E-01 -0.3127827E+01  0.8255817E+05  0.3133959E+01  0.3400574E+00  0.1110576E+01  0.6367658E+08 -0.1551459E+01  0.1148588E-02  0.3115185E+01
  0.4013779E+00  0.2279391E+07 -0.1538234E+01  0.9995494E-02  0.1226481E+01  0.7852629E+05  0.3126798E+01  0.4281118E+01  0.5934152E-01  0.7780242E+08 -0.1538701E+01  0.2139940E-03 -0.1086230E+01
  0.4484252E+00  0.2427679E+07 -0.1520856E+01  0.4941906E-01  0.2946518E+01  0.7119115E+05  0.3108194E+01  0.2327770E+01 -0.4152189E+00  0.9151050E+08 -0.1521416E+01  0.4060176E-02 -0.1097750E+00
  0.4954725E+00  0.2523377E+07 -0.1498255E+01  0.1067031E+00  0.2634507E+01  0.6218395E+05  0.3066139E+01  0.1765427E+01 -0.3069380E+01  0.1042708E+09 -0.1498927E+01  0.6085310E-02 -0.3115626E+01
  0.5425196E+00  0.2576852E+07 -0.1469696E+01  0.2508644E+00  0.4870055E-01  0.5288771E+05  0.2981310E+01  0.2173606E+01 -0.2114758E+01  0.1156783E+09 -0.1470527E+01  0.4528466E-02 -0.2222753E+00
  0.5895669E+00  0.2597702E+07 -0.1434473E+01  0.2034238E+00 -0.2693539E+01  0.4466677E+05  0.2826023E+01  0.5256576E+00 -0.2636236E+01  0.1254482E+09 -0.1435547E+01  0.1893599E-02  0.2803132E+01
  0.6366141E+00  0.2593106E+07 -0.1391994E+01  0.2060801E+00  0.1412075E+00  0.3920563E+05  0.2575194E+01  0.6982155E+01 -0.4761963E+00  0.1333888E+09 -0.1393426E+01  0.4115076E-02 -0.2942593E+01
  0.6836614E+00  0.2567280E+07 -0.1341854E+01  0.2247455E+00  0.2864120E+01  0.3852228E+05  0.2249036E+01  0.9072848E+01 -0.2246784E+01  0.1393647E+09 -0.1343792E+01  0.1975980E-02  0.1113608E-02
  0.7307087E+00  0.2521813E+07 -0.1283942E+01  0.3327082E+00  0.2281222E+01  0.4355107E+05  0.1943409E+01  0.1746240E+02  0.1470106E+01  0.1432710E+09 -0.1286535E+01  0.2711989E-02 -0.4643300E+00
  0.7777559E+00  0.2456522E+07 -0.1218497E+01  0.2348799E+00 -0.5957381E+00  0.5306092E+05  0.1727091E+01  0.1210392E+02  0.1142094E+01  0.1450146E+09 -0.1221929E+01  0.3193248E-02  0.2709373E+01
  0.8248031E+00  0.2370350E+07 -0.1146242E+01  0.3261050E+00 -0.2247895E+01  0.6519682E+05  0.1594859E+01  0.1092706E+02  0.9028936E+00  0.1445270E+09 -0.1150659E+01  0.6253615E-02 -0.6232881E+00
  0.8718503E+00  0.2262703E+07 -0.1068353E+01  0.1081450E+00  0.5630881E-01  0.7839084E+05  0.1518839E+01  0.1253555E+02  0.1892252E+01  0.1417984E+09 -0.1073942E+01  0.2459976E-02 -0.8464855E+00
  0.9188976E+00  0.2134113E+07 -0.9865134E+00  0.1815259E+00 -0.8146364E+00  0.9161773E+05  0.1477726E+01  0.3977807E+01  0.1056911E+01  0.1369099E+09 -0.9933960E+00  0.3724256E-02 -0.6316150E+00
  0.9659449E+00  0.1986958E+07 -0.9026645E+00  0.2436465E+00 -0.5434800E+00  0.1041043E+06  0.1457836E+01  0.1173361E+02  0.2566657E+01  0.1300678E+09 -0.9110196E+00  0.5170326E-02  0.8120314E+00
  0.1012992E+01  0.1825295E+07 -0.8189151E+00  0.1278917E+00  0.2509211E+01  0.1152966E+06  0.1451276E+01  0.5425506E+02  0.1479906E+01  0.1215969E+09 -0.8288526E+00  0.1105752E-02  0.2384269E+01
  0.1060039E+01  0.1654348E+07 -0.7372020E+00  0.2110237E+00 -0.1898401E+01  0.1247834E+06  0.1453080E+01  0.1870270E+02  0.1785116E+01  0.1119131E+09 -0.7488560E+00  0.3849479E-02  0.2039612E+01
  0.1107087E+01  0.1479706E+07 -0.6591190E+00  0.7876915E-01  0.6664932E+00  0.1323036E+06  0.1460249E+01  0.7640447E+01 -0.1626364E+01  0.1014625E+09 -0.6726264E+00  0.4279604E-02  0.1803847E+01
  0.1154134E+01  0.1306517E+07 -0.5858287E+00  0.1674039E+00 -0.1565589E+01  0.1377048E+06  0.1470781E+01  0.2133527E+02  0.1498466E+01  0.9066677E+08 -0.6012888E+00  0.2546930E-02  0.2437688E+01
  0.1201181E+01  0.1138939E+07 -0.5179446E+00  0.1809384E+00 -0.1477264E+01  0.1409410E+06  0.1483396E+01  0.8755844E+01  0.1582854E+01  0.7988641E+08 -0.5355107E+00  0.6617595E-02 -0.1619328E+01
  0.1248228E+01  0.9798453E+06 -0.4556569E+00  0.8378929E-02 -0.2457732E+01  0.1420505E+06  0.1497248E+01  0.2558907E+02  0.1627514E+01  0.6938780E+08 -0.4754850E+00  0.4690374E-03 -0.1761990E+01
  0.1295276E+01  0.8310008E+06 -0.3987738E+00  0.8385534E-01  0.1287118E+01  0.1411418E+06  0.1511744E+01  0.2519464E+02  0.1633595E+01  0.5935433E+08 -0.4210466E+00  0.2845400E-02 -0.1377216E+01
  0.1342323E+01  0.6932700E+06 -0.3466761E+00  0.5205865E-01  0.2166929E+01  0.1383857E+06  0.1526576E+01  0.3782248E+02  0.1859653E+01  0.4990099E+08 -0.3717090E+00  0.6781333E-02 -0.1439053E+01
  0.1389370E+01  0.5667376E+06 -0.2984786E+00  0.2525489E+00  0.1255463E+01  0.1339840E+06  0.1541458E+01  0.3100680E+01 -0.1446862E+01  0.4107951E+08 -0.3267252E+00  0.2527391E-02  0.6367775E+00
  0.1436417E+01  0.4511165E+06 -0.2528009E+00  0.2517997E+00 -0.1228943E+01  0.1281675E+06  0.1556201E+01  0.1929662E+02  0.1883242E+01  0.3290604E+08 -0.2850054E+00  0.2130155E-03  0.3140789E+01
  0.1483464E+01  0.3458789E+06 -0.2073069E+00  0.2366899E+00 -0.1452435E+01  0.1212006E+06  0.1570838E+01  0.1179602E+02  0.1446312E+01  0.2537418E+08 -0.2448346E+00  0.1421703E-02  0.1266079E+01
  0.1530512E+01  0.2503998E+06 -0.1572467E+00  0.9327016E-01 -0.1285179E+01  0.1133275E+06  0.1585255E+01  0.2142510E+02  0.1729047E+01  0.1846316E+08 -0.2028760E+00  0.4310130E-02 -0.1805097E+01
  0.1577559E+01  0.1641064E+06 -0.9072348E-01  0.7223384E-01 -0.2738900E+01  0.1047881E+06  0.1599288E+01  0.1189728E+02  0.1196536E+01  0.1214787E+08 -0.1510528E+00  0.3380107E-02 -0.1216297E+01
  0.1624606E+01  0.8686478E+05  0.4010003E-01  0.4028798E-02  0.2793084E+01  0.9583777E+05  0.1612955E+01  0.1949877E+01 -0.9215996E+00  0.6416784E+07 -0.5693695E-01  0.1026400E-02 -0.3666658E+00
  0.1671654E+01  0.2437744E+05  0.7852024E+00  0.2101583E+00 -0.1373023E+01  0.8671450E+05  0.1626182E+01  0.9632436E+01  0.2235992E+01  0.1487238E+07  0.5370739E+00  0.1925321E-02  0.1668997E+01
  0.1718701E+01  0.5306851E+05  0.2598710E+01  0.1470596E+00 -0.1537810E+01  0.7759591E+05  0.1638579E+01  0.1217833E+02 -0.1730065E+01  0.3747828E+07  0.2694358E+01  0.1237726E-02 -0.1625615E+01
  0.1765748E+01  0.1072704E+06  0.2810987E+01  0.8498444E-01  0.1394826E+01  0.6864451E+05  0.1649092E+01  0.7586066E+00  0.1505613E+01  0.7903329E+07  0.2850323E+01  0.1353065E-02  0.1523934E+01
  0.1812795E+01  0.1562408E+06  0.2882032E+01  0.1797838E+00  0.1608115E+01  0.6005869E+05  0.1654732E+01  0.9093250E+00 -0.1912249E+01  0.1163096E+08  0.2902700E+01  0.2403287E-02  0.1556915E+01
  0.1859842E+01  0.1991169E+06  0.2920032E+01  0.2944126E-01  0.1316232E+01  0.5223861E+05  0.1638445E+01  0.2010632E+01  0.1564473E+01  0.1490204E+08  0.2931758E+01  0.7410892E-03 -0.1938636E+01
  0.1906890E+01  0.2357978E+06  0.2945072E+01  0.2639847E+00  0.9008279E+00  0.2987854E+05  0.2430908E+01  0.1473866E+02 -0.1414756E+01  0.1771402E+08  0.2951641E+01  0.3659793E-02  0.5138071E+00
  0.1953937E+01  0.2663917E+06  0.2963138E+01  0.2865123E-01  0.1461576E+01  0.3596866E+05  0.1792808E+01  0.1678713E+02 -0.1582817E+01  0.2007143E+08  0.2966393E+01  0.1239201E-02  0.1550307E+01
  0.2000984E+01  0.2910520E+06  0.2976745E+01  0.1599040E-01 -0.1166531E+01  0.2991295E+05  0.1785790E+01  0.1008627E+02 -0.1619541E+01  0.2198303E+08  0.2977840E+01  0.1264506E-02 -0.1362931E+01
  0.2048032E+01  0.3099792E+06  0.2987301E+01  0.2234132E+00 -0.1580868E+01  0.2422562E+05  0.1798881E+01  0.3085192E+01  0.2199354E+01  0.2345881E+08  0.2986936E+01  0.1303694E-03  0.1484545E+01
  0.2095079E+01  0.3230775E+06  0.2995787E+01  0.4049826E-01  0.1656945E+01  0.1914762E+05  0.1820165E+01  0.1752377E+01 -0.2248455E+01  0.2449346E+08  0.2994400E+01  0.9042536E-03 -0.1546212E+01
  0.2142126E+01  0.3302148E+06  0.3002807E+01  0.1395269E+00  0.1660523E+01  0.1470351E+05  0.1847959E+01  0.3520846E+01 -0.2912250E+01  0.2507911E+08  0.3000654E+01  0.5040578E-03 -0.1895110E+01
  0.2189173E+01  0.3317498E+06  0.3008254E+01  0.1032583E+00 -0.1440706E+01  0.1089628E+05  0.1882993E+01  0.1857162E+02  0.1523582E+01  0.2523786E+08  0.3005574E+01  0.2652076E-02  0.1555839E+01
  0.2236220E+01  0.3279894E+06  0.3012027E+01  0.3809484E-01 -0.2060369E+01  0.7695559E+04  0.1930513E+01  0.5410053E+01  0.1705826E+01  0.2498990E+08  0.3009018E+01  0.1602107E-02  0.1691222E+01
  0.2283268E+01  0.3192014E+06  0.3013880E+01  0.6169629E-01 -0.1449370E+01  0.5047257E+04  0.2005350E+01  0.2218706E+01  0.1092485E+01  0.2435172E+08  0.3010609E+01  0.5668680E-03 -0.1456268E+01
  0.2330315E+01  0.3049401E+06  0.3011406E+01  0.3209489E-01 -0.2179004E+01  0.2935634E+04  0.2143929E+01  0.5737077E+01  0.1299226E+01  0.2329662E+08  0.3007925E+01  0.1601230E-02 -0.1575567E+01
  0.2377362E+01  0.2801422E+06  0.2985225E+01  0.5096199E-02  0.9497193E+00  0.1377483E+04  0.2513416E+01  0.1093107E+02  0.1438196E+01  0.2149452E+08  0.2981539E+01  0.1274368E-03 -0.1820225E+01
  0.2424410E+01  0.2854995E+06  0.3105752E+01  0.2920854E-01 -0.2032178E+01  0.8191760E+03 -0.2580764E+01  0.9332789E+00  0.1185226E+01  0.2165849E+08  0.3102487E+01  0.8394156E-03 -0.1282423E+01
  0.2471457E+01  0.2492742E+06  0.3059643E+01  0.3669642E-01  0.1447939E+01  0.1371274E+04 -0.1820421E+01  0.3124668E+01 -0.1394155E+01  0.1902394E+08  0.3056187E+01  0.1496854E-03 -0.8229849E+00
  0.2518504E+01  0.2192579E+06  0.3054470E+01  0.2556439E-01  0.1808666E+01  0.1917649E+04 -0.1594786E+01  0.1361984E+01 -0.2039693E+01  0.1676163E+08  0.3050928E+01  0.5268310E-03 -0.1600292E+01
  0.2565551E+01  0.1880336E+06  0.3054527E+01  0.1308579E-01 -0.2040966E+01  0.2263895E+04 -0.1488894E+01  0.3387248E+01 -0.1520386E+01  0.1439129E+08  0.3050777E+01  0.2134006E-03  0.2143296E+01
  0.2612598E+01  0.1555436E+06  0.3056413E+01  0.2986599E-02 -0.7625374E+00  0.2418965E+04 -0.1417302E+01  0.1227002E+01 -0.1455920E+01  0.1191520E+08  0.3052347E+01  0.9620566E-04  0.1647149E+01
  0.2659646E+01  0.1221987E+06  0.3058939E+01  0.2900042E-02 -0.1494192E+01  0.2395135E+04 -0.1359054E+01  0.3395735E+00 -0.1693965E+01  0.9367956E+07  0.3054554E+01  0.2363415E-05  0.6712589E-01
  0.2706693E+01  0.8859697E+05  0.3062494E+01  0.9860808E-02  0.1577603E+01  0.2216708E+04 -0.1306538E+01  0.8062755E-01  0.6561410E-01  0.6797538E+07  0.3057557E+01  0.4333982E-04  0.1365553E+01
  0.2753740E+01  0.5551081E+05  0.3069692E+01  0.9403313E-02  0.1966447E+01  0.1906494E+04 -0.1240350E+01  0.1526282E+01  0.1556260E+01  0.4262568E+07  0.3063275E+01  0.6368604E-03 -0.1616688E+01
  0.2800787E+01  0.2367853E+05  0.3093888E+01  0.1373146E-01  0.1847012E+01  0.1423650E+04 -0.1109043E+01  0.3598899E+00 -0.9561790E+00  0.1819801E+07  0.3081457E+01  0.2463213E-04 -0.1912908E+01
  0.2847835E+01  0.6314263E+04 -0.2373566E+00  0.7522238E-02 -0.2002145E+01  0.6870374E+03 -0.1086922E+00  0.1865249E+01 -0.1517841E+01  0.4811252E+06 -0.1991414E+00  0.4141785E-03 -0.1535543E+01
  0.2894882E+01  0.3355506E+05 -0.1123053E+00  0.3282704E-01 -0.1608651E+01  0.9156332E+04 -0.1588060E+01  0.5769446E+01  0.1503002E+01  0.2578419E+07 -0.1064183E+00  0.2280258E-03  0.1247371E+01
  0.2941929E+01  0.5762290E+05 -0.9826713E-01  0.4392254E-01 -0.1488430E+01  0.2151138E+04 -0.1401397E+01  0.1807616E+01 -0.1225013E+01  0.4432198E+07 -0.9555539E-01  0.2204308E-03 -0.1867892E+01
  0.2988976E+01  0.7787369E+05 -0.9226886E-01  0.4665683E-01 -0.1503418E+01  0.1385108E+04 -0.1317465E+01  0.1690861E+01 -0.1258463E+01  0.5994879E+07 -0.9057937E-01  0.1047072E-02 -0.1598534E+01
  0.3036024E+01  0.9380584E+05 -0.8876357E-01  0.2091922E-01  0.1796371E+01  0.9473151E+03 -0.1254514E+01  0.1585927E+01 -0.1488446E+01  0.7228252E+07 -0.8739386E-01  0.8467059E-03  0.1561820E+01
  0.3083071E+01  0.1050148E+06 -0.8555786E-01  0.1143757E-01 -0.9285806E+00  0.6336591E+03 -0.1183947E+01  0.5426298E+01  0.1553456E+01  0.8101310E+07 -0.8427838E-01  0.8066546E-03  0.1494291E+01
  0.3130118E+01  0.1110651E+06 -0.8143221E-01  0.9677446E-02 -0.1805525E+01  0.3955334E+03 -0.1071561E+01  0.4402265E+01  0.1625765E+01  0.8581910E+07 -0.8017346E-01  0.3919985E-03  0.1552947E+01
  0.3177165E+01  0.1110188E+06 -0.7400671E-01  0.2523572E-02 -0.1325818E+01  0.2280827E+03 -0.8433633E+00  0.3317177E+01  0.1569744E+01  0.8604257E+07 -0.7271022E-01  0.8039029E-04 -0.1945835E+01
  0.3224213E+01  0.9880709E+05 -0.4807274E-01  0.3789444E-01  0.1570310E+01  0.1384029E+03 -0.3834073E+00  0.1203362E+01 -0.1431836E+01  0.7743578E+07 -0.4664495E-01  0.1952765E-03 -0.1523787E+01
  0.3271260E+01  0.1395288E+06 -0.1606371E+00  0.2338039E-01  0.1545508E+01  0.1142871E+03  0.1573212E+00  0.8453200E+00  0.1541976E+01  0.1054184E+08 -0.1601694E+00  0.4968095E-04 -0.1307255E+01
  0.3318307E+01  0.1072076E+06 -0.1036868E+00  0.2808598E-01  0.1555106E+01  0.1126582E+03  0.3090779E+00  0.8988681E+00  0.1601727E+01  0.8216585E+07 -0.1030181E+00  0.3093842E-04  0.1644381E+01
  0.3365355E+01  0.9042646E+05 -0.9458043E-01  0.2338531E-02  0.2659224E+01  0.1078939E+03 -0.8188991E-02  0.7258372E+00  0.1539875E+01  0.6949382E+07 -0.9374735E-01  0.7053457E-04 -0.1704411E+01
  0.3412401E+01  0.7292826E+05 -0.9047810E-01  0.1217937E-02  0.1224223E+01  0.1437939E+03 -0.6301255E+00  0.1584605E+00  0.1723196E+01  0.5612084E+07 -0.8947372E-01  0.4053224E-04  0.1196755E+01
  0.3459449E+01  0.5410879E+05 -0.8749626E-01  0.6648927E-03  0.2534322E+01  0.2715813E+03 -0.1075869E+01  0.1692480E-01 -0.7059199E+00  0.4168086E+07 -0.8639073E-01  0.2061491E-04  0.4116230E+00
  0.3506496E+01  0.3451976E+05 -0.8416922E-01  0.1761863E-02 -0.1991140E+01  0.5369644E+03 -0.1301463E+01  0.6811526E+00  0.1862735E+01  0.2661497E+07 -0.8313239E-01  0.2527268E-04  0.1015484E+01
  0.3553543E+01  0.1493136E+05 -0.7741595E-01  0.8678604E-02  0.1885632E+01  0.1173327E+04 -0.1429856E+01  0.1170858E+01  0.2073307E+01  0.1152297E+07 -0.7710026E-01  0.2082609E-03 -0.1567745E+01
  0.3600591E+01  0.3805140E+04  0.3024490E+01  0.9583653E-02 -0.1617033E+01  0.5447143E+04 -0.1406124E+01  0.1363732E+01  0.1720579E+01  0.2936289E+06  0.3033266E+01  0.3450627E-03  0.1522888E+01
  0.3647638E+01  0.2085800E+05  0.3055138E+01  0.6874909E-02  0.2956353E+01  0.2297570E+04  0.1346022E+01  0.1311122E+01  0.1889808E+01  0.1612115E+07  0.3058280E+01  0.1445179E-03  0.1195738E+01
  0.3694685E+01  0.3545902E+05  0.3061512E+01  0.1881577E-01 -0.1556564E+01  0.8410804E+03  0.1258740E+01  0.8481414E+00 -0.1708426E+01  0.2743373E+07  0.3064184E+01  0.1499388E-03 -0.1210951E+01
  0.3741732E+01  0.4685716E+05  0.3067341E+01  0.2703858E-01  0.1584786E+01  0.4363920E+03  0.1119612E+01  0.9691080E+00 -0.1556185E+01  0.3630076E+07  0.3070012E+01  0.8400017E-04  0.1933121E+01
  0.3788780E+01  0.5429275E+05  0.3074854E+01  0.1832129E-01  0.1546931E+01  0.2349836E+03  0.9238803E+00  0.2442865E+00 -0.2085466E+01  0.4214943E+07  0.3077820E+01  0.1568831E-03  0.1459367E+01
  0.3835827E+01  0.5655095E+05  0.3090456E+01  0.1263012E-01  0.1645447E+01  0.1135051E+03  0.6939278E+00  0.1398407E+01 -0.1611826E+01  0.4409810E+07  0.3093985E+01  0.1602335E-03  0.1555457E+01
  0.3882874E+01  0.4810617E+05 -0.3139392E+01  0.2936402E-02 -0.1420160E+01  0.3333619E+02  0.3989883E+00  0.1029725E+01 -0.1639435E+01  0.3819672E+07 -0.3133917E+01  0.6084679E-04  0.1785443E+01
  0.3929921E+01  0.1102547E+06  0.2699154E+01  0.2381567E-02 -0.1818828E+01  0.2995666E+02  0.3096925E+01  0.4247015E+00  0.1596779E+01  0.8191239E+07  0.2699948E+01  0.1369856E-03  0.1458558E+01
  0.3976969E+01  0.6604846E+05  0.2982111E+01  0.6492113E-03  0.2380983E+01  0.1007244E+03  0.2760363E+01  0.1593236E+00 -0.1604320E+01  0.5046366E+07  0.2984614E+01  0.6661050E-05  0.4119011E+00
  0.4024016E+01  0.5233440E+05  0.3011849E+01  0.5250645E-03  0.1837048E+01  0.2049633E+03  0.2457045E+01  0.7343848E-01 -0.1027796E+01  0.4020662E+07  0.3014879E+01  0.4343381E-04  0.1539729E+01
  0.4071063E+01  0.3917654E+05  0.3024243E+01  0.1747404E-02  0.2584406E+01  0.3663088E+03  0.2221399E+01  0.1651364E+00 -0.1466786E+01  0.3018160E+07  0.3027456E+01  0.4893126E-04  0.1904897E+01
  0.4118111E+01  0.2540970E+05  0.3032186E+01  0.1174523E-02 -0.2120535E+01  0.6588121E+03  0.2021902E+01  0.2667675E+00  0.1438027E+01  0.1961210E+07  0.3035431E+01  0.1208183E-04 -0.1106013E+01
  0.4165157E+01  0.1143433E+05  0.3039000E+01  0.6484042E-02 -0.1463691E+01  0.1391428E+04  0.1866035E+01  0.8739908E+00 -0.1487510E+01  0.8837906E+06  0.3042240E+01  0.4834268E-04 -0.2578162E+01
  0.4212204E+01  0.2015325E+04 -0.1112312E+00  0.1542739E-01  0.1888718E+01  0.8871511E+04  0.2217875E+01  0.2323410E+01 -0.1665213E+01  0.1558156E+06 -0.1048391E+00  0.1176938E-03 -0.2125438E+01
  0.4259252E+01  0.1408524E+05 -0.9703334E-01  0.1828659E-01 -0.1761875E+01  0.2004414E+04 -0.1934424E+01  0.2975408E+00 -0.1092300E+01  0.1091691E+07 -0.9223092E-01  0.7514719E-04 -0.1594559E+00
  0.4306299E+01  0.2390028E+05 -0.9007861E-01  0.9749078E-02  0.1604924E+01  0.8529921E+03 -0.2087327E+01  0.3519844E+00 -0.1554368E+01  0.1856521E+07 -0.8451965E-01  0.2330736E-03 -0.1512396E+01
  0.4353347E+01  0.3055476E+05 -0.7947607E-01  0.3233070E-02 -0.2015491E+01  0.4609448E+03 -0.2320073E+01  0.7864935E+00 -0.1570121E+01  0.2382081E+07 -0.7283720E-01  0.2309697E-04 -0.3124740E+01
  0.4400393E+01  0.3269246E+05 -0.5761067E-01  0.5573052E-02 -0.1640883E+01  0.2427909E+03 -0.2591788E+01  0.3082471E+00  0.1535937E+01  0.2569132E+07 -0.4903293E-01  0.7093786E-04  0.1620732E+01
  0.4447441E+01  0.2462228E+05  0.4587800E-02  0.1251396E-02  0.2481144E+01  0.9383452E+02 -0.2897731E+01  0.9264570E+00 -0.1597755E+01  0.2011198E+07  0.2258847E-01  0.2634970E-04 -0.1735015E+01
  0.4494488E+01  0.8597886E+05 -0.7249287E+00  0.1294271E-02 -0.1326621E+01  0.2159698E+02 -0.7479066E-01  0.1012976E+00 -0.1532874E+01  0.6284533E+07 -0.7240092E+00  0.7284370E-04 -0.1625989E+01
  0.4541535E+01  0.4621758E+05 -0.2320035E+00  0.2489358E-02 -0.1351561E+01  0.1304008E+03 -0.3951240E+00  0.1729946E+00 -0.1710654E+01  0.3509644E+07 -0.2273082E+00  0.4099719E-04 -0.1768516E+01
  0.4588583E+01  0.3419084E+05 -0.1814246E+00  0.8850508E-03 -0.2252873E+01  0.2727115E+03 -0.6795715E+00  0.4541565E-01 -0.8705310E+00  0.2619090E+07 -0.1754182E+00  0.7094237E-05  0.1386633E+01
  0.4635630E+01  0.2335815E+05 -0.1613232E+00  0.1011472E-02 -0.1234792E+01  0.4963083E+03 -0.9293450E+00  0.3775361E-01 -0.2998164E-01  0.1797305E+07 -0.1546607E+00  0.1444006E-04  0.1876621E+00
  0.4682677E+01  0.1243521E+05 -0.1496667E+00  0.5289462E-03  0.7764431E+00  0.9752368E+03 -0.1130676E+01  0.5661306E-01 -0.1857418E+01  0.9596946E+06 -0.1423391E+00  0.1643208E-04  0.2371208E+01
  0.4729724E+01  0.1825742E+04 -0.1399567E+00  0.1807472E-01  0.2541927E+01  0.3358903E+04 -0.1064330E+01  0.8171107E+00  0.3268542E-01  0.1413046E+06 -0.1323124E+00  0.1776204E-03 -0.7403507E+00
  0.4776772E+01  0.7692309E+04  0.3006142E+01  0.1109176E-01 -0.1368165E+01  0.2201088E+04  0.1091018E+01  0.8205202E+00 -0.1110168E+01  0.5968811E+06  0.3015522E+01  0.1850014E-03  0.2917332E+01
  0.4823819E+01  0.1521565E+05  0.3014998E+01  0.3333723E-02  0.1493442E+01  0.7781473E+03  0.1011361E+01  0.4043418E+00  0.1355050E+01  0.1185428E+07  0.3026040E+01  0.1274250E-03  0.1635713E+01
  0.4870866E+01  0.1970712E+05  0.3028658E+01  0.2831772E-02 -0.1943535E+01  0.3880337E+03  0.7698079E+00  0.3523319E+00  0.1839824E+01  0.1545864E+07  0.3042199E+01  0.5040867E-04  0.1655851E+01
  0.4917913E+01  0.1919063E+05  0.3054041E+01  0.2357369E-02 -0.1762973E+01  0.1905856E+03  0.4776253E+00  0.4364954E+00  0.1586613E+01  0.1533425E+07  0.3074699E+01  0.2563268E-04  0.5173731E+00
  0.4964961E+01  0.3907667E+04  0.1719752E+01  0.2129809E-03 -0.4238676E+00  0.5657792E+02  0.1531229E+00  0.5758423E-01 -0.1555008E+01  0.2858817E+06  0.2310077E+01  0.5875815E-04  0.1505275E+01
  0.5012008E+01  0.4904093E+05  0.2646929E+01  0.2132392E-02  0.1547258E+01  0.6143770E+02  0.2958329E+01  0.2296557E-01  0.7288547E+00  0.3649208E+07  0.2650018E+01  0.7201270E-05 -0.1742765E+01
  0.5059055E+01  0.3088785E+05  0.2859506E+01  0.7953784E-04  0.1074929E+01  0.1991082E+03  0.2642792E+01  0.3303597E-01 -0.5841141E+00  0.2346252E+07  0.2866557E+01  0.9762533E-05 -0.4860963E+00
  0.5106102E+01  0.2085913E+05  0.2903410E+01  0.2125522E-03  0.1398115E+01  0.4011752E+03  0.2362135E+01  0.2117183E-01  0.3067925E+01  0.1596920E+07  0.2912635E+01  0.7992380E-05 -0.2856366E-01
  0.5153150E+01  0.1160292E+05  0.2923192E+01  0.4219901E-03  0.1232473E+01  0.7959492E+03  0.2135254E+01  0.9942966E-01  0.1542323E+01  0.8928490E+06  0.2933780E+01  0.2226853E-04  0.1569072E+01
  0.5200197E+01  0.2824946E+04  0.2935918E+01  0.4583938E-02 -0.2800297E+01  0.2339768E+04  0.2158218E+01  0.2969395E+00  0.3083975E+01  0.2183048E+06  0.2947722E+01  0.5833537E-04  0.2363122E+01
  0.5247244E+01  0.4863811E+04 -0.1959624E+00  0.1366769E-01  0.1383014E+01  0.2261223E+04 -0.2207516E+01  0.4948438E+00 -0.2623069E+01  0.3773814E+06 -0.1824615E+00  0.1405415E-03 -0.2112337E+01
  0.5294291E+01  0.1058854E+05 -0.1873052E+00  0.3169126E-02  0.5972821E+00  0.7521196E+03 -0.2198748E+01  0.1458065E-01  0.2918116E+01  0.8263016E+06 -0.1708288E+00  0.3277780E-04  0.1618952E+01
  0.5341339E+01  0.1316837E+05 -0.1803021E+00  0.3168840E-02 -0.9625067E+00  0.3620241E+03 -0.2443591E+01  0.4300323E+00  0.1769976E+01  0.1039000E+07 -0.1574726E+00  0.5999458E-04 -0.1409573E+01
  0.5388386E+01  0.9732048E+04 -0.2357320E+00  0.6509887E-02 -0.1581256E+01  0.1625537E+03 -0.2750437E+01  0.5576060E-01 -0.1338693E+01  0.8002012E+06 -0.1787063E+00  0.7416577E-04 -0.1445971E+01
  0.5435433E+01  0.3480158E+05 -0.1992777E+01  0.4323292E-03  0.1278909E+01  0.2165512E+02 -0.3086197E+01  0.1025554E+00  0.1268611E+01  0.2453104E+07 -0.1991244E+01  0.9988606E-05 -0.9473655E+00
  0.5482480E+01  0.3304882E+05 -0.4732292E+00  0.9483506E-03 -0.1505970E+01  0.1139130E+03 -0.2844308E+00  0.2794114E-01 -0.1461296E+01  0.2480266E+07 -0.4683945E+00  0.1439463E-04 -0.1728947E+01
  0.5529528E+01  0.2090167E+05 -0.3410853E+00  0.6600497E-03  0.2478978E+01  0.2888664E+03 -0.5995961E+00  0.6333981E-01  0.8379937E+00  0.1589442E+07 -0.3319681E+00  0.6219776E-05  0.1431036E+01
  0.5576575E+01  0.1228400E+05 -0.3065262E+00  0.1193212E-03  0.2315310E+01  0.5941874E+03 -0.8631970E+00  0.3198209E-01 -0.1039275E+01  0.9404241E+06 -0.2942257E+00  0.6022738E-05 -0.4572844E+00
  0.5623622E+01  0.4499175E+04 -0.2937610E+00  0.7082255E-03  0.7920915E+00  0.1466476E+04 -0.9522362E+00  0.1023382E+00 -0.1178456E+01  0.3462597E+06 -0.2784309E+00  0.2636355E-04 -0.1722358E+01
  0.5670670E+01  0.2207456E+04  0.2851433E+01  0.1144130E-01  0.2128884E+00  0.3004981E+04  0.5432495E+00  0.5000349E+00  0.2776366E+01  0.1707461E+06  0.2870418E+01  0.3087263E-04  0.1492883E+01
  0.5717716E+01  0.7044466E+04  0.2847787E+01  0.5457698E-02 -0.1518069E+01  0.8700999E+03  0.8956995E+00  0.3199910E+00  0.1025607E+01  0.5489162E+06  0.2872578E+01  0.5857850E-04  0.1879668E+01
  0.5764764E+01  0.8869512E+04  0.2820736E+01  0.1827511E-02 -0.1315329E+01  0.3949059E+03  0.6740748E+00  0.1073803E+00  0.1210827E+01  0.7002996E+06  0.2858304E+01  0.3989189E-04  0.2285904E+01
  0.5811811E+01  0.5408941E+04  0.2422940E+01  0.2582716E-02 -0.1483234E+01  0.1702335E+03  0.3693638E+00  0.2875913E+00  0.1693212E+01  0.4359873E+06  0.2562515E+01  0.1228428E-04 -0.6313838E+00
  0.5858858E+01  0.3614310E+05  0.1389127E+01  0.1392093E-02 -0.1467259E+01  0.1364880E+02  0.3158219E-01  0.5442055E-01 -0.4798108E+00  0.2611074E+07  0.1389373E+01  0.2152639E-04  0.2006214E+01
  0.5905906E+01  0.2664901E+05  0.2591871E+01  0.3545120E-03  0.1313776E+01  0.1373134E+03  0.2829237E+01  0.9445101E-02 -0.1051650E+01  0.2002484E+07  0.2596843E+01  0.9311610E-05 -0.1537712E+01
  0.5952953E+01  0.1586254E+05  0.2721459E+01  0.5010190E-03 -0.7553471E+00  0.3421055E+03  0.2515618E+01  0.2158986E-01  0.3065789E+01  0.1205579E+07  0.2731342E+01  0.1404841E-05  0.1777480E+01
  0.6000000E+01  0.8129215E+04  0.2751021E+01  0.6371677E-03 -0.3592949E-01  0.7420420E+03  0.2288986E+01  0.2834858E-01  0.1033423E+01  0.6218397E+06  0.2765086E+01  0.6549671E-05  0.3127942E+01
