VARIABLES="w (rad/s)"  
"abs(F   1   1)" "angle(F   1   1)"
"abs(F   1   2)" "angle(F   1   2)"
"abs(F   1   3)" "angle(F   1   3)"
"abs(F   1   4)" "angle(F   1   4)"
"abs(F   1   5)" "angle(F   1   5)"
"abs(F   1   6)" "angle(F   1   6)"
Zone t="Excitation force - beta =   0.000 deg",I=   128,F=POINT
  0.2500000E-01  0.4008404E+05 -0.1570786E+01  0.1165055E+02 -0.9112302E-06  0.1311407E+07 -0.3172711E-06  0.6379047E+03 -0.3141592E+01  0.6801976E+06 -0.1536299E+01  0.8661820E+00  0.1259656E-05
  0.7204724E-01  0.3237643E+06 -0.1570795E+01  0.9533513E+01 -0.3141562E+01  0.1157339E+07 -0.1912065E-04  0.3103277E+03  0.1773030E-04  0.5651836E+07 -0.1567130E+01  0.1157758E-01 -0.7209663E-03
  0.1190945E+00  0.8380958E+06 -0.1570756E+01  0.6976274E+01  0.9337987E-04  0.8797666E+06 -0.1124440E-03  0.8225642E+02  0.3141353E+01  0.1545147E+08 -0.1569737E+01  0.5232657E+00 -0.3141555E+01
  0.1661417E+00  0.1507497E+07 -0.1570542E+01  0.2727741E+02 -0.1283493E-03  0.5225067E+06 -0.2988257E-03  0.5444775E+03  0.3141138E+01  0.2999496E+08 -0.1570229E+01  0.2552347E+00 -0.6244934E-03
  0.2131890E+00  0.2242972E+07 -0.1569854E+01  0.1479694E+02  0.3141513E+01  0.1365010E+06 -0.5116746E-03  0.4472130E+03 -0.3140876E+01  0.4896933E+08 -0.1569804E+01  0.3696739E+00 -0.3141552E+01
  0.2602362E+00  0.2960598E+07 -0.1568288E+01  0.9396662E+01  0.1197236E-02  0.2313862E+06  0.3140957E+01  0.4416587E+03 -0.3139679E+01  0.7171713E+08 -0.1568346E+01  0.3898982E+00 -0.4636626E-03
  0.3072835E+00  0.3595629E+07 -0.1565421E+01  0.8069000E+00  0.1916209E-02  0.5464775E+06  0.3140903E+01  0.1151725E+04 -0.3141308E+01  0.9721234E+08 -0.1565522E+01  0.6403978E-01 -0.3139189E+01
  0.3543307E+00  0.4109284E+07 -0.1560866E+01  0.2680064E+01 -0.1812001E-03  0.7897889E+06  0.3140795E+01  0.4057712E+03  0.5911131E-03  0.1241480E+09 -0.1560980E+01  0.2994498E-01 -0.3141180E+01
  0.4013779E+00  0.4488574E+07 -0.1554262E+01  0.6856866E+01  0.1398324E-02  0.9572532E+06  0.3140379E+01  0.4425967E+02  0.7435602E-02  0.1511093E+09 -0.1554377E+01  0.1980390E+00 -0.3140775E+01
  0.4484252E+00  0.4740689E+07 -0.1545230E+01  0.6341109E+01  0.3139868E+01  0.1055816E+07  0.3139341E+01  0.2231066E+03 -0.4256363E-02  0.1767742E+09 -0.1545341E+01  0.5801070E-01 -0.3134209E+01
  0.4954725E+00  0.4884692E+07 -0.1533346E+01  0.2125841E+01  0.2367694E-01  0.1098374E+07  0.3137325E+01  0.3727672E+03 -0.3141064E+01  0.2000637E+09 -0.1533455E+01  0.1082309E+00 -0.3140182E+01
  0.5425196E+00  0.4943588E+07 -0.1518163E+01  0.3606159E+00  0.4332007E-01  0.1099304E+07  0.3133914E+01  0.5703228E+03 -0.3455664E-02  0.2202144E+09 -0.1518274E+01  0.3104718E-01 -0.3251705E-01
  0.5895669E+00  0.4938521E+07 -0.1499250E+01  0.4461125E+01 -0.3121725E+01  0.1071626E+07  0.3128656E+01  0.3735225E+03 -0.3141096E+01  0.2367698E+09 -0.1499372E+01  0.2085920E+00  0.3138551E+01
  0.6366141E+00  0.4885593E+07 -0.1476258E+01  0.6611781E+01  0.4519060E-02  0.1025593E+07  0.3121078E+01  0.1566034E+03 -0.2018586E-01  0.2495132E+09 -0.1476402E+01  0.2381822E-01 -0.3106897E+01
  0.6836614E+00  0.4795166E+07 -0.1448990E+01  0.4764577E+01  0.1288422E-01  0.9685499E+06  0.3110617E+01  0.6375967E+03 -0.1105016E-01  0.2583844E+09 -0.1449171E+01  0.3215922E-01 -0.3139172E+01
  0.7307087E+00  0.4672568E+07 -0.1417494E+01  0.1157298E+01  0.2201181E+00  0.9055354E+06  0.3096783E+01  0.5678164E+02  0.3103609E+00  0.2634063E+09 -0.1417719E+01  0.5847021E-02 -0.2919428E+01
  0.7777559E+00  0.4519802E+07 -0.1382140E+01  0.3233137E+01 -0.3100227E+01  0.8398459E+06  0.3079143E+01  0.2998605E+03  0.3702614E-01  0.2646423E+09 -0.1382428E+01  0.2814855E-01  0.3093010E+01
  0.8248031E+00  0.4337288E+07 -0.1343737E+01  0.5911108E+01 -0.3098426E+01  0.7736988E+06  0.3057250E+01  0.4904895E+03  0.1708502E-01  0.2621980E+09 -0.1344080E+01  0.2197045E-01 -0.1702189E+00
  0.8718503E+00  0.4125894E+07 -0.1303526E+01  0.5166736E+01  0.5282567E-03  0.7085602E+06  0.3030882E+01  0.1717096E+03  0.6790937E-01  0.2562635E+09 -0.1303938E+01  0.3107514E-01 -0.3081099E+01
  0.9188976E+00  0.3888190E+07 -0.1263211E+01  0.3447383E+01 -0.3741741E-01  0.6455088E+06  0.2999802E+01  0.1495029E+03  0.2361511E-01  0.2471538E+09 -0.1263667E+01  0.3710669E-01 -0.5648170E-01
  0.9659449E+00  0.3629237E+07 -0.1224752E+01  0.1096209E+01 -0.1156320E+00  0.5852539E+06  0.2963914E+01  0.4806792E+02  0.1316672E+00  0.2353496E+09 -0.1225260E+01  0.7414725E-02  0.5295542E+00
  0.1012992E+01  0.3356350E+07 -0.1190230E+01  0.2737900E+00  0.2825154E+00  0.5283168E+06  0.2923183E+01  0.5901643E+02  0.1158195E+01  0.2214750E+09 -0.1190764E+01  0.7963091E-02  0.3055779E+01
  0.1060039E+01  0.3078114E+07 -0.1161563E+01  0.2203304E+01 -0.3050272E+01  0.4750112E+06  0.2877662E+01  0.1755656E+03  0.3037209E+01  0.2062483E+09 -0.1162108E+01  0.2164107E-01  0.1543739E+00
  0.1107087E+01  0.2803123E+07 -0.1140319E+01  0.1730188E+01  0.3113628E+01  0.4255164E+06  0.2827423E+01  0.3523246E+03 -0.3120154E+01  0.1903877E+09 -0.1140865E+01  0.4263857E-01  0.9685114E-01
  0.1154134E+01  0.2538815E+07 -0.1127625E+01  0.1968252E+01 -0.3057757E+01  0.3798833E+06  0.2772595E+01  0.1354579E+03  0.2984236E+01  0.1745321E+09 -0.1128149E+01  0.3145410E-01  0.5233851E-01
  0.1201181E+01  0.2290716E+07 -0.1124104E+01  0.2160099E+00 -0.2151849E+01  0.3380716E+06  0.2713314E+01  0.8313967E+02  0.3036870E+01  0.1591916E+09 -0.1124599E+01  0.3080406E-01 -0.2149975E+00
  0.1248228E+01  0.2062233E+07 -0.1129999E+01  0.3016375E-01 -0.1431062E+00  0.2999716E+06  0.2649732E+01  0.6780076E+02  0.3837377E+00  0.1447159E+09 -0.1130449E+01  0.3014006E-01 -0.1537785E-01
  0.1295276E+01  0.1854937E+07 -0.1145222E+01  0.4530604E+00  0.2962357E+01  0.2654183E+06  0.2581996E+01  0.5789623E+02  0.4490206E+00  0.1313157E+09 -0.1145612E+01  0.2182472E-01 -0.1261495E+00
  0.1342323E+01  0.1668940E+07 -0.1169423E+01  0.6517505E+00  0.3074754E+01  0.2342291E+06  0.2510242E+01  0.7053970E+02  0.2601403E+01  0.1190887E+09 -0.1169754E+01  0.7066957E-02 -0.1263563E+01
  0.1389370E+01  0.1503340E+07 -0.1202188E+01  0.8009324E+00  0.2835461E+01  0.2061835E+06  0.2434601E+01  0.3471140E+02 -0.8980389E-01  0.1080428E+09 -0.1202448E+01  0.2637480E-02  0.6087254E+00
  0.1436417E+01  0.1356674E+07 -0.1243010E+01  0.3788706E+00 -0.6746171E+00  0.1810522E+06  0.2355173E+01  0.6123321E+02  0.3033842E+00  0.9813338E+08 -0.1243199E+01  0.1532515E-02  0.7112596E-02
  0.1483464E+01  0.1227160E+07 -0.1291355E+01  0.2395659E+00 -0.1385932E+01  0.1586330E+06  0.2272054E+01  0.2590082E+02  0.4632453E+00  0.8928374E+08 -0.1291477E+01  0.8653772E-02  0.1567257E+00
  0.1530512E+01  0.1112899E+07 -0.1346704E+01  0.5174866E+00 -0.2966272E+01  0.1386898E+06  0.2185327E+01  0.3406823E+02  0.6777779E+00  0.8139724E+08 -0.1346769E+01  0.6498424E-02 -0.2439840E+01
  0.1577559E+01  0.1012104E+07 -0.1408609E+01  0.1419604E+00 -0.2936612E+01  0.1209911E+06  0.2094986E+01  0.1125548E+02  0.1637483E+01  0.7437658E+08 -0.1408631E+01  0.6760842E-02 -0.2647167E+01
  0.1624606E+01  0.9231269E+06 -0.1476634E+01  0.5504312E+00  0.1252061E-02  0.1053519E+06  0.2000993E+01  0.5553137E+01 -0.2883481E+01  0.6812674E+08 -0.1476632E+01  0.5248455E-02 -0.6989439E-01
  0.1671654E+01  0.8443753E+06 -0.1550376E+01  0.2114133E+00 -0.1789064E+01  0.9159688E+05  0.1903247E+01  0.1074528E+02  0.2368047E+01  0.6255441E+08 -0.1550374E+01  0.1959157E-02  0.1617146E+01
  0.1718701E+01  0.7745112E+06 -0.1629497E+01  0.3788286E+00 -0.3976137E+00  0.7952459E+05  0.1801497E+01  0.1881705E+02 -0.2432563E+01  0.5757724E+08 -0.1629524E+01  0.1401999E-02 -0.1080299E+01
  0.1765748E+01  0.7123592E+06 -0.1713712E+01  0.2141194E+00  0.4025164E+00  0.6896342E+05  0.1694761E+01  0.1769288E+02  0.3108598E+01  0.5312217E+08 -0.1713794E+01  0.1797018E-02  0.2279069E+01
  0.1812795E+01  0.6568668E+06 -0.1802761E+01  0.2192808E+00  0.2183328E+01  0.5984992E+05  0.1580245E+01  0.4608930E+01 -0.2961602E+01  0.4912269E+08 -0.1802923E+01  0.4639446E-02  0.2599618E+01
  0.1859842E+01  0.6071191E+06 -0.1896476E+01  0.2043834E+00  0.1420115E+00  0.5254512E+05  0.1443374E+01  0.7692118E+01  0.2687322E+00  0.4552010E+08 -0.1896724E+01  0.3483473E-02 -0.2930776E+01
  0.1906890E+01  0.5624374E+06 -0.1994537E+01  0.2754186E+00  0.8542798E+00  0.2119959E+05  0.1974988E+01  0.1449915E+02 -0.1587671E+01  0.4226983E+08 -0.1994924E+01  0.3533495E-02  0.5261198E+00
  0.1953937E+01  0.5221063E+06 -0.2096847E+01  0.6087600E-01  0.2644291E+01  0.3624400E+05  0.1317318E+01  0.1900400E+02 -0.1088385E+01  0.3932366E+08 -0.2097394E+01  0.1655148E-02  0.2290018E+01
  0.2000984E+01  0.4855417E+06 -0.2203480E+01  0.3913094E-01 -0.3860975E+00  0.3165230E+05  0.1176563E+01  0.1070275E+02 -0.1897313E+01  0.3664440E+08 -0.2204169E+01  0.1260578E-02 -0.1359856E+01
  0.2048032E+01  0.4523558E+06 -0.2314631E+01  0.2240889E+00 -0.1655500E+01  0.2725355E+05  0.1046900E+01  0.2803194E+01  0.2005765E+01  0.3420400E+08 -0.2315363E+01  0.3751555E-03  0.2755854E+01
  0.2095079E+01  0.4221263E+06 -0.2429868E+01  0.4066905E-01  0.1700929E+01  0.2336207E+05  0.9177744E+00  0.1472341E+01 -0.1198132E+01  0.3197447E+08 -0.2430635E+01  0.9197952E-03 -0.1807925E+01
  0.2142126E+01  0.3943501E+06 -0.2548673E+01  0.1384247E+00  0.1621951E+01  0.1998237E+05  0.7862967E+00  0.4497762E+01 -0.2937314E+01  0.2992238E+08 -0.2549577E+01  0.4809380E-03 -0.1898721E+01
  0.2189173E+01  0.3687604E+06 -0.2671772E+01  0.1038002E+00 -0.1452721E+01  0.1708693E+05  0.6521186E+00  0.1849637E+02  0.1515406E+01  0.2802880E+08 -0.2672765E+01  0.2645991E-02  0.1584549E+01
  0.2236220E+01  0.3452096E+06 -0.2799793E+01  0.3533417E-01 -0.1903145E+01  0.1460748E+05  0.5156547E+00  0.5430525E+01  0.1844348E+01  0.2628233E+08 -0.2800742E+01  0.1602398E-02  0.1692100E+01
  0.2283268E+01  0.3235951E+06 -0.2933315E+01  0.6518502E-01 -0.1200432E+01  0.1247008E+05  0.3759229E+00  0.2333363E+01  0.9521159E+00  0.2467204E+08 -0.2934108E+01  0.5766270E-03 -0.1747141E+01
  0.2330315E+01  0.3030435E+06 -0.3074393E+01  0.2963468E-01 -0.2030596E+01  0.1064365E+05  0.2338638E+00  0.6947886E+01  0.9190834E+00  0.2313987E+08 -0.3075009E+01  0.1594590E-02 -0.1533190E+01
  0.2377362E+01  0.2781359E+06  0.3040803E+01  0.9869859E-02  0.2552072E+01  0.9082156E+04  0.8924989E-01  0.1084033E+02  0.1661465E+01  0.2132886E+08  0.3040339E+01  0.5160557E-03 -0.2936075E+01
  0.2424410E+01  0.2874685E+06  0.3019146E+01  0.5473225E-01 -0.2626875E+01  0.7749297E+04 -0.5625545E-01  0.1518989E+01  0.6445049E+00  0.2180616E+08  0.3018731E+01  0.8241643E-03 -0.1333449E+01
  0.2471457E+01  0.2615023E+06  0.2824160E+01  0.4500998E-01  0.2193968E+01  0.6600208E+04 -0.2027082E+00  0.3660070E+01 -0.9926895E+00  0.1995231E+08  0.2823998E+01  0.1011000E-02 -0.1024820E+00
  0.2518504E+01  0.2454981E+06  0.2667543E+01  0.6179854E-01  0.4144016E+00  0.5605850E+04 -0.3490248E+00  0.1686530E+01 -0.8136111E+00  0.1876151E+08  0.2667551E+01  0.1081812E-02 -0.5388089E+00
  0.2565551E+01  0.2316172E+06  0.2512826E+01  0.3420268E-01 -0.2806075E+01  0.4739880E+04 -0.4961301E+00  0.4341050E+01 -0.8933555E+00  0.1771991E+08  0.2512910E+01  0.4297115E-03  0.2681777E+01
  0.2612598E+01  0.2190795E+06  0.2356627E+01  0.1865783E-01 -0.2991614E+01  0.3989494E+04 -0.6425076E+00  0.4341736E+01 -0.2854210E+01  0.1677461E+08  0.2356725E+01  0.2012812E-03  0.4409787E+00
  0.2659646E+01  0.2075885E+06  0.2197711E+01  0.5149557E-01 -0.3091495E+01  0.3313171E+04 -0.7849185E+00  0.1476494E+01 -0.2888839E+01  0.1590479E+08  0.2197861E+01  0.1153947E-02 -0.3136358E+01
  0.2706693E+01  0.1969399E+06  0.2035839E+01  0.5076648E-01  0.2936455E+01  0.2676772E+04 -0.9262633E+00  0.3662944E+01  0.4109312E-02  0.1509736E+08  0.2036058E+01  0.2077789E-03  0.2990163E+01
  0.2753740E+01  0.1869986E+06  0.1871387E+01  0.4122118E-01  0.2932728E+01  0.2062275E+04 -0.1064293E+01  0.2371473E+01  0.2450798E+01  0.1434300E+08  0.1871588E+01  0.7133923E-03 -0.1077096E+01
  0.2800787E+01  0.1776631E+06  0.1704319E+01  0.1535793E-01  0.2065572E+01  0.1376492E+04 -0.1183529E+01  0.1224506E+01 -0.2150568E+00  0.1363470E+08  0.1704420E+01  0.4542911E-03 -0.4689749E-01
  0.2847835E+01  0.1688688E+06  0.1534445E+01  0.6761332E-02 -0.1444333E+01  0.2207995E+03 -0.3443010E+00  0.1846432E+01 -0.1642868E+01  0.1296773E+08  0.1534420E+01  0.7453295E-03 -0.2569446E+01
  0.2894882E+01  0.1605870E+06  0.1361638E+01  0.3330459E-01 -0.1736337E+01  0.9196759E+04 -0.1666165E+01  0.5737796E+01  0.1555781E+01  0.1233916E+08  0.1361492E+01  0.2568060E-03  0.9603271E+00
  0.2941929E+01  0.1527555E+06  0.1185964E+01  0.4425225E-01 -0.1733638E+01  0.2177952E+04 -0.1801304E+01  0.1918437E+01 -0.1062049E+01  0.1174468E+08  0.1185692E+01  0.2254462E-03 -0.1398257E+01
  0.2988976E+01  0.1452381E+06  0.1007591E+01  0.4688581E-01 -0.1473378E+01  0.1458565E+04 -0.1975224E+01  0.1631356E+01 -0.1426606E+01  0.1117516E+08  0.1007181E+01  0.1057083E-02 -0.1579773E+01
  0.3036024E+01  0.1379107E+06  0.8264173E+00  0.2130861E-01  0.1819055E+01  0.1094884E+04 -0.2176146E+01  0.1609838E+01 -0.1534036E+01  0.1062199E+08  0.8258939E+00  0.8456684E-03  0.1561104E+01
  0.3083071E+01  0.1306960E+06  0.6425573E+00  0.1166906E-01 -0.8855609E+00  0.8590296E+03 -0.2389545E+01  0.5473456E+01  0.1533079E+01  0.1007914E+08  0.6419747E+00  0.8076301E-03  0.1495716E+01
  0.3130118E+01  0.1233356E+06  0.4566661E+00  0.9433039E-02 -0.1316542E+01  0.6868079E+03 -0.2611501E+01  0.4398349E+01  0.1551961E+01  0.9528140E+07  0.4560561E+00  0.3950369E-03  0.1479630E+01
  0.3177165E+01  0.1149118E+06  0.2710993E+00  0.8278493E-02 -0.2784890E+01  0.5522902E+03 -0.2828034E+01  0.3404585E+01  0.1344984E+01  0.8905292E+07  0.2704833E+00  0.1050319E-03 -0.7950407E+00
  0.3224213E+01  0.9920712E+05  0.1018567E+00  0.3848133E-01  0.1625064E+01  0.4372148E+03 -0.3022896E+01  0.1557042E+01 -0.8711782E+00  0.7774904E+07  0.1011736E+00  0.1994063E-03 -0.1830173E+01
  0.3271260E+01  0.1410667E+06 -0.2178516E+00  0.2320203E-01  0.1550905E+01  0.3345832E+03  0.3088051E+01  0.1366325E+01  0.6915375E+00  0.1065955E+08 -0.2181559E+00  0.9782093E-04 -0.6751339E+00
  0.3318307E+01  0.1140074E+06 -0.3616736E+00  0.2762936E-01  0.1445029E+01  0.2323419E+03  0.2993562E+01  0.1207718E+01  0.2322433E+01  0.8739441E+07 -0.3620076E+00  0.2142740E-03  0.9462332E-01
  0.3365355E+01  0.1061256E+06 -0.5581012E+00  0.2104092E-01  0.5157930E-01  0.1297562E+03 -0.3134784E+01  0.7457158E+00  0.1859996E+01  0.8157576E+07 -0.5583092E+00  0.2591712E-03 -0.2846439E+01
  0.3412401E+01  0.1004564E+06 -0.7626616E+00  0.2275014E-02  0.4404986E+00  0.9182107E+02 -0.1966376E+01  0.1186016E+01  0.3015789E+01  0.7731890E+07 -0.7627593E+00  0.1286091E-03  0.2836079E+01
  0.3459449E+01  0.9558664E+05 -0.9716890E+00  0.2069043E-02  0.2638596E+00  0.2438818E+03 -0.1370220E+01  0.2412741E+00 -0.7796630E-01  0.7363956E+07 -0.9716951E+00  0.3616697E-03  0.3138235E+01
  0.3506496E+01  0.9117688E+05 -0.1183958E+01  0.2010111E-01 -0.3054632E+01  0.5309769E+03 -0.1345906E+01  0.1243824E+01  0.5506939E+00  0.7029713E+07 -0.1183918E+01  0.7867819E-04  0.2823935E+01
  0.3553543E+01  0.8707522E+05 -0.1398989E+01  0.1042907E-01  0.2278594E+01  0.1175818E+04 -0.1415638E+01  0.1481543E+01  0.2397321E+01  0.6718288E+07 -0.1398944E+01  0.2107492E-03 -0.1539211E+01
  0.3600591E+01  0.8318671E+05 -0.1616241E+01  0.1229287E-01 -0.2278991E+01  0.5454706E+04 -0.1397981E+01  0.1443780E+01  0.1964494E+01  0.6423123E+07 -0.1616258E+01  0.3596553E-03  0.1264706E+01
  0.3647638E+01  0.7944007E+05 -0.1835457E+01  0.8029088E-02  0.2992361E+01  0.2312122E+04  0.1319974E+01  0.1376365E+01  0.1969047E+01  0.6138453E+07 -0.1835594E+01  0.1628886E-03  0.1029448E+01
  0.3694685E+01  0.7574096E+05 -0.2056308E+01  0.1902143E-01 -0.1688347E+01  0.8648274E+03  0.1182543E+01  0.1001135E+01 -0.9988998E+00  0.5857876E+07 -0.2056600E+01  0.1624659E-03 -0.1115818E+01
  0.3741732E+01  0.7192548E+05 -0.2277950E+01  0.2734631E-01  0.1536914E+01  0.4707881E+03  0.9866475E+00  0.1000473E+01 -0.1735031E+01  0.5570008E+07 -0.2278445E+01  0.8438020E-04  0.1759473E+01
  0.3788780E+01  0.6766539E+05 -0.2499067E+01  0.1808932E-01  0.1575729E+01  0.2785386E+03  0.7384894E+00  0.2571986E+00 -0.2161280E+01  0.5251508E+07 -0.2499733E+01  0.1533773E-03  0.1527770E+01
  0.3835827E+01  0.6208294E+05 -0.2713364E+01  0.1261035E-01  0.1617075E+01  0.1605856E+03  0.4690678E+00  0.1403109E+01 -0.1707453E+01  0.4840101E+07 -0.2714240E+01  0.1593606E-03  0.1380683E+01
  0.3882874E+01  0.4974141E+05 -0.2884458E+01  0.7845531E-02 -0.3686046E+00  0.7765581E+02  0.1675528E+00  0.1055279E+01 -0.1340010E+01  0.3948085E+07 -0.2885732E+01  0.5669149E-04  0.1471214E+01
  0.3929921E+01  0.1117139E+06  0.2672339E+01  0.8686690E-02 -0.2872587E+01  0.5452598E+01  0.2478543E+00  0.4413700E+00  0.1783812E+01  0.8303852E+07  0.2672081E+01  0.1553494E-03  0.1075220E+01
  0.3976969E+01  0.7117338E+05  0.2729332E+01  0.2724916E-02  0.1253709E+00  0.7804897E+02  0.2640759E+01  0.2369775E+00 -0.7621549E+00  0.5441276E+07  0.2728839E+01  0.8873489E-04  0.2065062E-01
  0.4024016E+01  0.6406719E+05  0.2514951E+01  0.4330398E-02  0.2931456E+01  0.1928622E+03  0.2404689E+01  0.4339980E+00 -0.1784473E+00  0.4925287E+07  0.2514583E+01  0.1318561E-03  0.3499016E+00
  0.4071063E+01  0.5989335E+05  0.2277863E+01  0.1082158E-01  0.3046191E+01  0.3612848E+03  0.2202903E+01  0.1910782E+00 -0.1234223E+01  0.4617062E+07  0.2277649E+01  0.5291017E-04  0.1908533E+01
  0.4118111E+01  0.5667347E+05  0.2032721E+01  0.1541472E-02 -0.2261268E+01  0.6577256E+03  0.2018479E+01  0.2681797E+00  0.1714997E+01  0.4376422E+07  0.2032649E+01  0.1502328E-04 -0.1960016E+01
  0.4165157E+01  0.5389853E+05  0.1783425E+01  0.6517263E-02 -0.1762965E+01  0.1391936E+04  0.1867232E+01  0.8651111E+00 -0.1424142E+01  0.4167240E+07  0.1783429E+01  0.8191611E-04 -0.2866606E+01
  0.4212204E+01  0.5132615E+05  0.1531764E+01  0.1669978E-01  0.2071417E+01  0.8874210E+04  0.2218278E+01  0.2327339E+01 -0.1693334E+01  0.3972868E+07  0.1531782E+01  0.1504246E-03 -0.2407021E+01
  0.4259252E+01  0.4877123E+05  0.1279239E+01  0.1809861E-01 -0.1683252E+01  0.2006530E+04 -0.1937184E+01  0.2859900E+00 -0.1126825E+01  0.3780179E+07  0.1279112E+01  0.1285055E-03 -0.1107032E+00
  0.4306299E+01  0.4604355E+05  0.1027482E+01  0.9520707E-02  0.1520772E+01  0.8561520E+03 -0.2093788E+01  0.3490476E+00 -0.1736849E+01  0.3576244E+07  0.1027135E+01  0.2276398E-03 -0.1534594E+01
  0.4353347E+01  0.4281666E+05  0.7793562E+00  0.3280906E-02 -0.1998309E+01  0.4650941E+03 -0.2329615E+01  0.7700292E+00 -0.1571374E+01  0.3337598E+07  0.7787116E+00  0.2495902E-04  0.3062925E+01
  0.4400393E+01  0.3816264E+05  0.5447822E+00  0.5618915E-02 -0.1604958E+01  0.2473089E+03 -0.2602946E+01  0.3025130E+00  0.1728006E+01  0.2998460E+07  0.5437250E+00  0.7227083E-04  0.1633026E+01
  0.4447441E+01  0.2655044E+05  0.3834808E+00  0.7097736E-03  0.2197113E+01  0.9796035E+02 -0.2908197E+01  0.9243188E+00 -0.1751463E+01  0.2166209E+07  0.3812380E+00  0.3064795E-04 -0.2161258E+01
  0.4494488E+01  0.8738777E+05 -0.7429470E+00  0.4537767E-02 -0.3700561E+00  0.1847132E+02 -0.8747648E-01  0.3049231E+00 -0.2828557E+01  0.6393586E+07 -0.7430952E+00  0.7664684E-04 -0.1903859E+01
  0.4541535E+01  0.5091191E+05 -0.4875716E+00  0.3939230E-02 -0.6597770E+00  0.1284817E+03 -0.4013618E+00  0.3454322E+00 -0.4962450E+00  0.3871326E+07 -0.4880398E+00  0.3782456E-04 -0.2042058E+01
  0.4588583E+01  0.4433805E+05 -0.7098129E+00  0.5921537E-02 -0.3005826E+01  0.2718022E+03 -0.6822776E+00  0.9384952E-01 -0.2665301E+01  0.3401217E+07 -0.7102060E+00  0.5585888E-04  0.3001339E+01
  0.4635630E+01  0.4081171E+05 -0.9704745E+00  0.3953734E-02 -0.2320192E+00  0.4960415E+03 -0.9300656E+00  0.1144329E+00 -0.9890198E-02  0.3144671E+07 -0.9707045E+00  0.1761851E-04  0.2884366E+01
  0.4682677E+01  0.3821321E+05 -0.1243189E+01  0.2858910E-02  0.2971088E+01  0.9752700E+03 -0.1130604E+01  0.1052235E+00 -0.2657921E+01  0.2952896E+07 -0.1243256E+01  0.1081110E-03  0.3039425E+01
  0.4729724E+01  0.3597052E+05 -0.1520514E+01  0.1832003E-01  0.2555309E+01  0.3359104E+04 -0.1064223E+01  0.9695244E+00  0.2326346E-01  0.2786347E+07 -0.1520505E+01  0.1783861E-03 -0.7514210E+00
  0.4776772E+01  0.3377796E+05 -0.1798402E+01  0.1129312E-01 -0.1216106E+01  0.2201359E+04  0.1090781E+01  0.8602523E+00 -0.1000293E+01  0.2623446E+07 -0.1798470E+01  0.1705420E-03  0.2887130E+01
  0.4823819E+01  0.3135041E+05 -0.2073113E+01  0.3227906E-02  0.1702910E+01  0.7784846E+03  0.1010669E+01  0.4005009E+00  0.1350449E+01  0.2444296E+07 -0.2073439E+01  0.1292043E-03  0.1756710E+01
  0.4870866E+01  0.2820016E+05 -0.2338351E+01  0.2812821E-02 -0.1969604E+01  0.3884604E+03  0.7687435E+00  0.3517351E+00  0.1833098E+01  0.2213586E+07 -0.2339086E+01  0.5199198E-04  0.1691284E+01
  0.4917913E+01  0.2272908E+05 -0.2570085E+01  0.2350578E-02 -0.1891134E+01  0.1910289E+03  0.4764247E+00  0.4508612E+00  0.1546035E+01  0.1817302E+07 -0.2571599E+01  0.2594432E-04  0.4509463E+00
  0.4964961E+01  0.9303914E+03 -0.2243763E+01  0.2630478E-02 -0.4419148E-01  0.5695263E+02  0.1521076E+00  0.2011960E+00 -0.3258884E+00  0.2409485E+06 -0.2497097E+01  0.6037528E-04  0.1302471E+01
  0.5012008E+01  0.5146191E+05  0.2565731E+01  0.5114615E-02  0.2726384E+01  0.6118513E+02  0.2957564E+01  0.3739435E-01  0.6998041E+00  0.3836494E+07  0.2565420E+01  0.4826985E-04 -0.1612684E+00
  0.5059055E+01  0.3679244E+05  0.2508727E+01  0.1689553E-02  0.3039046E+01  0.1989787E+03  0.2642437E+01  0.1364207E+00 -0.1683397E+00  0.2801344E+07  0.2508271E+01  0.1203859E-04 -0.6332287E+00
  0.5106102E+01  0.3204648E+05  0.2255607E+01  0.6328894E-02  0.3109708E+01  0.4011329E+03  0.2362031E+01  0.2778157E-01  0.7373217E-01  0.2459734E+07  0.2255292E+01  0.1023247E-04  0.3076478E+01
  0.5153150E+01  0.2915820E+05  0.1969774E+01  0.3546473E-02  0.3038849E+01  0.7959513E+03  0.2135258E+01  0.1074284E+00  0.9745454E+00  0.2249565E+07  0.1969646E+01  0.2322333E-04  0.1367553E+01
  0.5200197E+01  0.2687872E+05  0.1673863E+01  0.3977323E-02 -0.2797012E+01  0.2339792E+04  0.2158234E+01  0.2053028E+00  0.3078477E+01  0.2082034E+07  0.1673866E+01  0.4991000E-04  0.2180993E+01
  0.5247244E+01  0.2473481E+05  0.1376705E+01  0.1346151E-01  0.1465793E+01  0.2261261E+04 -0.2207539E+01  0.4602606E+00 -0.2582774E+01  0.1923693E+07  0.1376660E+01  0.1425748E-03 -0.2131680E+01
  0.5294291E+01  0.2231354E+05  0.1085766E+01  0.2176386E-02  0.8903654E+00  0.7521589E+03 -0.2198820E+01  0.3703210E-01 -0.2278599E+00  0.1745338E+07  0.1085418E+01  0.3198835E-04  0.1532536E+01
  0.5341339E+01  0.1887429E+05  0.8142985E+00  0.3062314E-02 -0.1004472E+01  0.3620704E+03 -0.2443698E+01  0.4196995E+00  0.1777325E+01  0.1493459E+07  0.8133165E+00  0.6013178E-04 -0.1345292E+01
  0.5388386E+01  0.1161515E+05  0.6185792E+00  0.6465111E-02 -0.1602575E+01  0.1625983E+03 -0.2750551E+01  0.9649889E-01 -0.6250178E+00  0.9643394E+06  0.6153395E+00  0.7640518E-04 -0.1364226E+01
  0.5435433E+01  0.3363455E+05 -0.2008409E+01  0.9620324E-03  0.2543317E+01  0.2168915E+02 -0.3086284E+01  0.1245742E+00  0.8979093E+00  0.2362524E+07 -0.2008453E+01  0.9063440E-05 -0.8889006E+00
  0.5482480E+01  0.3630624E+05 -0.6262334E+00  0.1110168E-02 -0.2058585E+01  0.1138933E+03 -0.2844814E+00  0.2297560E-01 -0.9916417E+00  0.2732144E+07 -0.6265876E+00  0.2209293E-04 -0.7167099E+00
  0.5529528E+01  0.2782461E+05 -0.7842486E+00  0.1188292E-02  0.2705981E+01  0.2888588E+03 -0.5996142E+00  0.1661401E+00  0.2825032E+01  0.2123508E+07 -0.7846543E+00  0.7612964E-05  0.9035743E+00
  0.5576575E+01  0.2409164E+05 -0.1063152E+01  0.1112406E-02  0.3096986E+01  0.5941867E+03 -0.8631983E+00  0.1883454E+00 -0.1534614E+00  0.1852231E+07 -0.1063396E+01  0.5629772E-05 -0.2746092E+00
  0.5623622E+01  0.2152480E+05 -0.1369368E+01  0.8666893E-03  0.7457289E+00  0.1466478E+04 -0.9522338E+00  0.9254531E-01 -0.1894927E+01  0.1664394E+07 -0.1369410E+01  0.3598328E-04 -0.2410151E+01
  0.5670670E+01  0.1924713E+05 -0.1680914E+01  0.1373522E-01  0.1750853E+00  0.3004987E+04  0.5432484E+00  0.5864316E+00  0.2826886E+01  0.1497083E+07 -0.1680903E+01  0.2914206E-04  0.1734508E+01
  0.5717716E+01  0.1672994E+05 -0.1985617E+01  0.5330367E-02 -0.1489550E+01  0.8701044E+03  0.8956929E+00  0.3288801E+00  0.9416589E+00  0.1312243E+07 -0.1985871E+01  0.5587175E-04  0.1783356E+01
  0.5764764E+01  0.1316526E+05 -0.2264414E+01  0.1770877E-02 -0.1302502E+01  0.3949109E+03  0.6740645E+00  0.1095111E+00  0.1218140E+01  0.1050510E+07 -0.2265368E+01  0.3955720E-04  0.2293276E+01
  0.5811811E+01  0.5381905E+04 -0.2428702E+01  0.2586870E-02 -0.1327738E+01  0.1702383E+03  0.3693531E+00  0.2883056E+00  0.1726255E+01  0.4794895E+06 -0.2435700E+01  0.1324822E-04 -0.5926520E+00
  0.5858858E+01  0.3554260E+05  0.1386023E+01  0.1290318E-02 -0.1205864E+01  0.1365218E+02  0.3157438E-01  0.4873947E-01 -0.3470217E+00  0.2564459E+07  0.1386037E+01  0.1870684E-04  0.1738316E+01
  0.5905906E+01  0.2998569E+05  0.2430713E+01  0.6496063E-03  0.2571688E+01  0.1373116E+03  0.2829233E+01  0.5286168E-01 -0.3060265E+01  0.2260750E+07  0.2430354E+01  0.3473084E-04 -0.2893401E+01
  0.5952953E+01  0.2259496E+05  0.2266579E+01  0.1310366E-02 -0.2652153E+00  0.3421050E+03  0.2515617E+01  0.1283394E-01  0.4046766E+00  0.1725590E+07  0.2266173E+01  0.1579392E-04 -0.3130527E+01
  0.6000000E+01  0.1905872E+05  0.1976225E+01  0.1135631E-02  0.1343681E-01  0.7420421E+03  0.2288986E+01  0.3458503E-01  0.2340283E+01  0.1466870E+07  0.1976025E+01  0.6918701E-05 -0.1950724E+00
