VARIABLES="Frequency (rad/s)" "|Fx| (N/m)" "|Fy| (N/m)" "|Fz| (N/m)" "|Cx| (N)" "|Cy| (N)" "|Cz| (N)" "ang(Fx) (°)" "ang(Fy) (°)" "ang(Fz) (°)" "ang(Cx) (°)" "ang(Cy) (°)" "ang(Cz) (°)"
Zone t="Corps  1"
Zone t="Excitation force - beta =   0.000 deg",I=   128,F=POINT
 0.0250  0.400840E+05  0.116505E+02  0.131141E+07  0.637905E+03  0.680198E+06  0.866182E+00  -90.00   -0.00   -0.00 -180.00  -88.02    0.00
 0.0720  0.323764E+06  0.953351E+01  0.115734E+07  0.310328E+03  0.565184E+07  0.115776E-01  -90.00 -180.00   -0.00    0.00  -89.79   -0.04
 0.1191  0.838096E+06  0.697627E+01  0.879767E+06  0.822564E+02  0.154515E+08  0.523266E+00  -90.00    0.01   -0.01  179.99  -89.94 -180.00
 0.1661  0.150750E+07  0.272774E+02  0.522507E+06  0.544478E+03  0.299950E+08  0.255235E+00  -89.99   -0.01   -0.02  179.97  -89.97   -0.04
 0.2132  0.224297E+07  0.147969E+02  0.136501E+06  0.447213E+03  0.489693E+08  0.369674E+00  -89.95  180.00   -0.03 -179.96  -89.94 -180.00
 0.2602  0.296060E+07  0.939666E+01  0.231386E+06  0.441659E+03  0.717171E+08  0.389898E+00  -89.86    0.07  179.96 -179.89  -89.86   -0.03
 0.3073  0.359563E+07  0.806900E+00  0.546478E+06  0.115173E+04  0.972123E+08  0.640398E-01  -89.69    0.11  179.96 -179.98  -89.70 -179.86
 0.3543  0.410928E+07  0.268006E+01  0.789789E+06  0.405771E+03  0.124148E+09  0.299450E-01  -89.43   -0.01  179.95    0.03  -89.44 -179.98
 0.4014  0.448857E+07  0.685687E+01  0.957253E+06  0.442597E+02  0.151109E+09  0.198039E+00  -89.05    0.08  179.93    0.43  -89.06 -179.95
 0.4484  0.474069E+07  0.634111E+01  0.105582E+07  0.223107E+03  0.176774E+09  0.580107E-01  -88.54  179.90  179.87   -0.24  -88.54 -179.58
 0.4955  0.488469E+07  0.212584E+01  0.109837E+07  0.372767E+03  0.200064E+09  0.108231E+00  -87.85    1.36  179.76 -179.97  -87.86 -179.92
 0.5425  0.494359E+07  0.360616E+00  0.109930E+07  0.570323E+03  0.220214E+09  0.310472E-01  -86.98    2.48  179.56   -0.20  -86.99   -1.86
 0.5896  0.493852E+07  0.446113E+01  0.107163E+07  0.373523E+03  0.236770E+09  0.208592E+00  -85.90 -178.86  179.26 -179.97  -85.91  179.83
 0.6366  0.488559E+07  0.661178E+01  0.102559E+07  0.156603E+03  0.249513E+09  0.238182E-01  -84.58    0.26  178.82   -1.16  -84.59 -178.01
 0.6837  0.479517E+07  0.476458E+01  0.968550E+06  0.637597E+03  0.258384E+09  0.321592E-01  -83.02    0.74  178.23   -0.63  -83.03 -179.86
 0.7307  0.467257E+07  0.115730E+01  0.905535E+06  0.567816E+02  0.263406E+09  0.584702E-02  -81.22   12.61  177.43   17.78  -81.23 -167.27
 0.7778  0.451980E+07  0.323314E+01  0.839846E+06  0.299861E+03  0.264642E+09  0.281485E-01  -79.19 -177.63  176.42    2.12  -79.21  177.22
 0.8248  0.433729E+07  0.591111E+01  0.773699E+06  0.490490E+03  0.262198E+09  0.219704E-01  -76.99 -177.53  175.17    0.98  -77.01   -9.75
 0.8719  0.412589E+07  0.516674E+01  0.708560E+06  0.171710E+03  0.256263E+09  0.310751E-01  -74.69    0.03  173.66    3.89  -74.71 -176.53
 0.9189  0.388819E+07  0.344738E+01  0.645509E+06  0.149503E+03  0.247154E+09  0.371067E-01  -72.38   -2.14  171.88    1.35  -72.40   -3.24
 0.9659  0.362924E+07  0.109621E+01  0.585254E+06  0.480679E+02  0.235350E+09  0.741472E-02  -70.17   -6.63  169.82    7.54  -70.20   30.34
 1.0130  0.335635E+07  0.273790E+00  0.528317E+06  0.590164E+02  0.221475E+09  0.796309E-02  -68.20   16.19  167.49   66.36  -68.23  175.08
 1.0600  0.307811E+07  0.220330E+01  0.475011E+06  0.175566E+03  0.206248E+09  0.216411E-01  -66.55 -174.77  164.88  174.02  -66.58    8.84
 1.1071  0.280312E+07  0.173019E+01  0.425516E+06  0.352325E+03  0.190388E+09  0.426386E-01  -65.34  178.40  162.00 -178.77  -65.37    5.55
 1.1541  0.253881E+07  0.196825E+01  0.379883E+06  0.135458E+03  0.174532E+09  0.314541E-01  -64.61 -175.20  158.86  170.98  -64.64    3.00
 1.2012  0.229072E+07  0.216010E+00  0.338072E+06  0.831397E+02  0.159192E+09  0.308041E-01  -64.41 -123.29  155.46  174.00  -64.43  -12.32
 1.2482  0.206223E+07  0.301638E-01  0.299972E+06  0.678008E+02  0.144716E+09  0.301401E-01  -64.74   -8.20  151.82   21.99  -64.77   -0.88
 1.2953  0.185494E+07  0.453060E+00  0.265418E+06  0.578962E+02  0.131316E+09  0.218247E-01  -65.62  169.73  147.94   25.73  -65.64   -7.23
 1.3423  0.166894E+07  0.651751E+00  0.234229E+06  0.705397E+02  0.119089E+09  0.706696E-02  -67.00  176.17  143.83  149.05  -67.02  -72.40
 1.3894  0.150334E+07  0.800932E+00  0.206184E+06  0.347114E+02  0.108043E+09  0.263748E-02  -68.88  162.46  139.49   -5.15  -68.90   34.88
 1.4364  0.135667E+07  0.378871E+00  0.181052E+06  0.612332E+02  0.981334E+08  0.153252E-02  -71.22  -38.65  134.94   17.38  -71.23    0.41
 1.4835  0.122716E+07  0.239566E+00  0.158633E+06  0.259008E+02  0.892837E+08  0.865377E-02  -73.99  -79.41  130.18   26.54  -74.00    8.98
 1.5305  0.111290E+07  0.517487E+00  0.138690E+06  0.340682E+02  0.813972E+08  0.649842E-02  -77.16 -169.95  125.21   38.83  -77.16 -139.79
 1.5776  0.101210E+07  0.141960E+00  0.120991E+06  0.112555E+02  0.743766E+08  0.676084E-02  -80.71 -168.26  120.03   93.82  -80.71 -151.67
 1.6246  0.923127E+06  0.550431E+00  0.105352E+06  0.555314E+01  0.681267E+08  0.524846E-02  -84.60    0.07  114.65 -165.21  -84.60   -4.00
 1.6717  0.844375E+06  0.211413E+00  0.915969E+05  0.107453E+02  0.625544E+08  0.195916E-02  -88.83 -102.51  109.05  135.68  -88.83   92.66
 1.7187  0.774511E+06  0.378829E+00  0.795246E+05  0.188170E+02  0.575772E+08  0.140200E-02  -93.36  -22.78  103.22 -139.38  -93.36  -61.90
 1.7657  0.712359E+06  0.214119E+00  0.689634E+05  0.176929E+02  0.531222E+08  0.179702E-02  -98.19   23.06   97.10  178.11  -98.19  130.58
 1.8128  0.656867E+06  0.219281E+00  0.598499E+05  0.460893E+01  0.491227E+08  0.463945E-02 -103.29  125.10   90.54 -169.69 -103.30  148.95
 1.8598  0.607119E+06  0.204383E+00  0.525451E+05  0.769212E+01  0.455201E+08  0.348347E-02 -108.66    8.14   82.70   15.40 -108.67 -167.92
 1.9069  0.562437E+06  0.275419E+00  0.211996E+05  0.144992E+02  0.422698E+08  0.353349E-02 -114.28   48.95  113.16  -90.97 -114.30   30.14
 1.9539  0.522106E+06  0.608760E-01  0.362440E+05  0.190040E+02  0.393237E+08  0.165515E-02 -120.14  151.51   75.48  -62.36 -120.17  131.21
 2.0010  0.485542E+06  0.391309E-01  0.316523E+05  0.107028E+02  0.366444E+08  0.126058E-02 -126.25  -22.12   67.41 -108.71 -126.29  -77.91
 2.0480  0.452356E+06  0.224089E+00  0.272536E+05  0.280319E+01  0.342040E+08  0.375156E-03 -132.62  -94.85   59.98  114.92 -132.66  157.90
 2.0951  0.422126E+06  0.406691E-01  0.233621E+05  0.147234E+01  0.319745E+08  0.919795E-03 -139.22   97.46   52.58  -68.65 -139.27 -103.59
 2.1421  0.394350E+06  0.138425E+00  0.199824E+05  0.449776E+01  0.299224E+08  0.480938E-03 -146.03   92.93   45.05 -168.30 -146.08 -108.79
 2.1892  0.368760E+06  0.103800E+00  0.170869E+05  0.184964E+02  0.280288E+08  0.264599E-02 -153.08  -83.23   37.36   86.83 -153.14   90.79
 2.2362  0.345210E+06  0.353342E-01  0.146075E+05  0.543053E+01  0.262823E+08  0.160240E-02 -160.42 -109.04   29.54  105.67 -160.47   96.95
 2.2833  0.323595E+06  0.651850E-01  0.124701E+05  0.233336E+01  0.246720E+08  0.576627E-03 -168.07  -68.78   21.54   54.55 -168.11 -100.10
 2.3303  0.303044E+06  0.296347E-01  0.106437E+05  0.694789E+01  0.231399E+08  0.159459E-02 -176.15 -116.34   13.40   52.66 -176.19  -87.85
 2.3774  0.278136E+06  0.986986E-02  0.908216E+04  0.108403E+02  0.213289E+08  0.516056E-03  174.23  146.22    5.11   95.19  174.20 -168.22
 2.4244  0.287468E+06  0.547323E-01  0.774930E+04  0.151899E+01  0.218062E+08  0.824164E-03  172.98 -150.51   -3.22   36.93  172.96  -76.40
 2.4715  0.261502E+06  0.450100E-01  0.660021E+04  0.366007E+01  0.199523E+08  0.101100E-02  161.81  125.71  -11.61  -56.88  161.80   -5.87
 2.5185  0.245498E+06  0.617985E-01  0.560585E+04  0.168653E+01  0.187615E+08  0.108181E-02  152.84   23.74  -20.00  -46.62  152.84  -30.87
 2.5656  0.231617E+06  0.342027E-01  0.473988E+04  0.434105E+01  0.177199E+08  0.429712E-03  143.97 -160.78  -28.43  -51.19  143.98  153.65
 2.6126  0.219079E+06  0.186578E-01  0.398949E+04  0.434174E+01  0.167746E+08  0.201281E-03  135.02 -171.41  -36.81 -163.53  135.03   25.27
 2.6596  0.207588E+06  0.514956E-01  0.331317E+04  0.147649E+01  0.159048E+08  0.115395E-02  125.92 -177.13  -44.97 -165.52  125.93 -179.70
 2.7067  0.196940E+06  0.507665E-01  0.267677E+04  0.366294E+01  0.150974E+08  0.207779E-03  116.64  168.25  -53.07    0.24  116.66  171.32
 2.7537  0.186999E+06  0.412212E-01  0.206227E+04  0.237147E+01  0.143430E+08  0.713392E-03  107.22  168.03  -60.98  140.42  107.23  -61.71
 2.8008  0.177663E+06  0.153579E-01  0.137649E+04  0.122451E+01  0.136347E+08  0.454291E-03   97.65  118.35  -67.81  -12.32   97.66   -2.69
 2.8478  0.168869E+06  0.676133E-02  0.220799E+03  0.184643E+01  0.129677E+08  0.745330E-03   87.92  -82.75  -19.73  -94.13   87.92 -147.22
 2.8949  0.160587E+06  0.333046E-01  0.919676E+04  0.573780E+01  0.123392E+08  0.256806E-03   78.02  -99.48  -95.46   89.14   78.01   55.02
 2.9419  0.152755E+06  0.442522E-01  0.217795E+04  0.191844E+01  0.117447E+08  0.225446E-03   67.95  -99.33 -103.21  -60.85   67.94  -80.11
 2.9890  0.145238E+06  0.468858E-01  0.145857E+04  0.163136E+01  0.111752E+08  0.105708E-02   57.73  -84.42 -113.17  -81.74   57.71  -90.51
 3.0360  0.137911E+06  0.213086E-01  0.109488E+04  0.160984E+01  0.106220E+08  0.845668E-03   47.35  104.22 -124.68  -87.89   47.32   89.44
 3.0831  0.130696E+06  0.116691E-01  0.859030E+03  0.547346E+01  0.100791E+08  0.807630E-03   36.82  -50.74 -136.91   87.84   36.78   85.70
 3.1301  0.123336E+06  0.943304E-02  0.686808E+03  0.439835E+01  0.952814E+07  0.395037E-03   26.17  -75.43 -149.63   88.92   26.13   84.78
 3.1772  0.114912E+06  0.827849E-02  0.552290E+03  0.340459E+01  0.890529E+07  0.105032E-03   15.53 -159.56 -162.03   77.06   15.50  -45.55
 3.2242  0.992071E+05  0.384813E-01  0.437215E+03  0.155704E+01  0.777490E+07  0.199406E-03    5.84   93.11 -173.20  -49.91    5.80 -104.86
 3.2713  0.141067E+06  0.232020E-01  0.334583E+03  0.136633E+01  0.106595E+08  0.978209E-04  -12.48   88.86  176.93   39.62  -12.50  -38.68
 3.3183  0.114007E+06  0.276294E-01  0.232342E+03  0.120772E+01  0.873944E+07  0.214274E-03  -20.72   82.79  171.52  133.07  -20.74    5.42
 3.3654  0.106126E+06  0.210409E-01  0.129756E+03  0.745716E+00  0.815758E+07  0.259171E-03  -31.98    2.96 -179.61  106.57  -31.99 -163.09
 3.4124  0.100456E+06  0.227501E-02  0.918211E+02  0.118602E+01  0.773189E+07  0.128609E-03  -43.70   25.24 -112.67  172.79  -43.70  162.50
 3.4594  0.955866E+05  0.206904E-02  0.243882E+03  0.241274E+00  0.736396E+07  0.361670E-03  -55.67   15.12  -78.51   -4.47  -55.67  179.81
 3.5065  0.911769E+05  0.201011E-01  0.530977E+03  0.124382E+01  0.702971E+07  0.786782E-04  -67.84 -175.02  -77.11   31.55  -67.83  161.80
 3.5535  0.870752E+05  0.104291E-01  0.117582E+04  0.148154E+01  0.671829E+07  0.210749E-03  -80.16  130.55  -81.11  137.36  -80.15  -88.19
 3.6006  0.831867E+05  0.122929E-01  0.545471E+04  0.144378E+01  0.642312E+07  0.359655E-03  -92.60 -130.58  -80.10  112.56  -92.60   72.46
 3.6476  0.794401E+05  0.802909E-02  0.231212E+04  0.137637E+01  0.613845E+07  0.162889E-03 -105.16  171.45   75.63  112.82 -105.17   58.98
 3.6947  0.757410E+05  0.190214E-01  0.864827E+03  0.100113E+01  0.585788E+07  0.162466E-03 -117.82  -96.74   67.75  -57.23 -117.83  -63.93
 3.7417  0.719255E+05  0.273463E-01  0.470788E+03  0.100047E+01  0.557001E+07  0.843802E-04 -130.52   88.06   56.53  -99.41 -130.55  100.81
 3.7888  0.676654E+05  0.180893E-01  0.278539E+03  0.257199E+00  0.525151E+07  0.153377E-03 -143.19   90.28   42.31 -123.83 -143.22   87.53
 3.8358  0.620829E+05  0.126103E-01  0.160586E+03  0.140311E+01  0.484010E+07  0.159361E-03 -155.46   92.65   26.88  -97.83 -155.51   79.11
 3.8829  0.497414E+05  0.784553E-02  0.776558E+02  0.105528E+01  0.394808E+07  0.566915E-04 -165.27  -21.12    9.60  -76.78 -165.34   84.29
 3.9299  0.111714E+06  0.868669E-02  0.545260E+01  0.441370E+00  0.830385E+07  0.155349E-03  153.11 -164.59   14.20  102.20  153.10   61.61
 3.9770  0.711734E+05  0.272492E-02  0.780490E+02  0.236977E+00  0.544128E+07  0.887349E-04  156.38    7.18  151.30  -43.67  156.35    1.18
 4.0240  0.640672E+05  0.433040E-02  0.192862E+03  0.433998E+00  0.492529E+07  0.131856E-03  144.10  167.96  137.78  -10.22  144.07   20.05
 4.0711  0.598933E+05  0.108216E-01  0.361285E+03  0.191078E+00  0.461706E+07  0.529102E-04  130.51  174.53  126.22  -70.72  130.50  109.35
 4.1181  0.566735E+05  0.154147E-02  0.657726E+03  0.268180E+00  0.437642E+07  0.150233E-04  116.47 -129.56  115.65   98.26  116.46 -112.30
 4.1652  0.538985E+05  0.651726E-02  0.139194E+04  0.865111E+00  0.416724E+07  0.819161E-04  102.18 -101.01  106.98  -81.60  102.18 -164.24
 4.2122  0.513261E+05  0.166998E-01  0.887421E+04  0.232734E+01  0.397287E+07  0.150425E-03   87.76  118.68  127.10  -97.02   87.76 -137.91
 4.2593  0.487712E+05  0.180986E-01  0.200653E+04  0.285990E+00  0.378018E+07  0.128505E-03   73.30  -96.44 -110.99  -64.56   73.29   -6.34
 4.3063  0.460436E+05  0.952071E-02  0.856152E+03  0.349048E+00  0.357624E+07  0.227640E-03   58.87   87.13 -119.97  -99.51   58.85  -87.93
 4.3533  0.428167E+05  0.328091E-02  0.465094E+03  0.770029E+00  0.333760E+07  0.249590E-04   44.65 -114.49 -133.48  -90.03   44.62  175.49
 4.4004  0.381626E+05  0.561891E-02  0.247309E+03  0.302513E+00  0.299846E+07  0.722708E-04   31.21  -91.96 -149.14   99.01   31.15   93.57
 4.4474  0.265504E+05  0.709774E-03  0.979604E+02  0.924319E+00  0.216621E+07  0.306479E-04   21.97  125.89 -166.63 -100.35   21.84 -123.83
 4.4945  0.873878E+05  0.453777E-02  0.184713E+02  0.304923E+00  0.639359E+07  0.766468E-04  -42.57  -21.20   -5.01 -162.06  -42.58 -109.08
 4.5415  0.509119E+05  0.393923E-02  0.128482E+03  0.345432E+00  0.387133E+07  0.378246E-04  -27.94  -37.80  -23.00  -28.43  -27.96 -117.00
 4.5886  0.443381E+05  0.592154E-02  0.271802E+03  0.938495E-01  0.340122E+07  0.558589E-04  -40.67 -172.22  -39.09 -152.71  -40.69  171.96
 4.6356  0.408117E+05  0.395373E-02  0.496041E+03  0.114433E+00  0.314467E+07  0.176185E-04  -55.60  -13.29  -53.29   -0.57  -55.62  165.26
 4.6827  0.382132E+05  0.285891E-02  0.975270E+03  0.105224E+00  0.295290E+07  0.108111E-03  -71.23  170.23  -64.78 -152.29  -71.23  174.15
 4.7297  0.359705E+05  0.183200E-01  0.335910E+04  0.969524E+00  0.278635E+07  0.178386E-03  -87.12  146.41  -60.98    1.33  -87.12  -43.05
 4.7768  0.337780E+05  0.112931E-01  0.220136E+04  0.860252E+00  0.262345E+07  0.170542E-03 -103.04  -69.68   62.50  -57.31 -103.04  165.42
 4.8238  0.313504E+05  0.322791E-02  0.778485E+03  0.400501E+00  0.244430E+07  0.129204E-03 -118.78   97.57   57.91   77.38 -118.80  100.65
 4.8709  0.282002E+05  0.281282E-02  0.388460E+03  0.351735E+00  0.221359E+07  0.519920E-04 -133.98 -112.85   44.05  105.03 -134.02   96.90
 4.9179  0.227291E+05  0.235058E-02  0.191029E+03  0.450861E+00  0.181730E+07  0.259443E-04 -147.26 -108.35   27.30   88.58 -147.34   25.84
 4.9650  0.930391E+03  0.263048E-02  0.569526E+02  0.201196E+00  0.240948E+06  0.603753E-04 -128.56   -2.53    8.72  -18.67 -143.07   74.63
 5.0120  0.514619E+05  0.511461E-02  0.611851E+02  0.373943E-01  0.383649E+07  0.482698E-04  147.01  156.21  169.46   40.10  146.99   -9.24
 5.0591  0.367924E+05  0.168955E-02  0.198979E+03  0.136421E+00  0.280134E+07  0.120386E-04  143.74  174.12  151.40   -9.65  143.71  -36.28
 5.1061  0.320465E+05  0.632889E-02  0.401133E+03  0.277816E-01  0.245973E+07  0.102325E-04  129.24  178.17  135.33    4.22  129.22  176.27
 5.1531  0.291582E+05  0.354647E-02  0.795951E+03  0.107428E+00  0.224956E+07  0.232233E-04  112.86  174.11  122.34   55.84  112.85   78.36
 5.2002  0.268787E+05  0.397732E-02  0.233979E+04  0.205303E+00  0.208203E+07  0.499100E-04   95.91 -160.26  123.66  176.38   95.91  124.96
 5.2472  0.247348E+05  0.134615E-01  0.226126E+04  0.460261E+00  0.192369E+07  0.142575E-03   78.88   83.98 -126.48 -147.98   78.88 -122.14
 5.2943  0.223135E+05  0.217639E-02  0.752159E+03  0.370321E-01  0.174534E+07  0.319884E-04   62.21   51.01 -125.98  -13.06   62.19   87.81
 5.3413  0.188743E+05  0.306231E-02  0.362070E+03  0.419700E+00  0.149346E+07  0.601318E-04   46.66  -57.55 -140.01  101.83   46.60  -77.08
 5.3884  0.116151E+05  0.646511E-02  0.162598E+03  0.964989E-01  0.964339E+06  0.764052E-04   35.44  -91.82 -157.59  -35.81   35.26  -78.16
 5.4354  0.336345E+05  0.962032E-03  0.216891E+02  0.124574E+00  0.236252E+07  0.906344E-05 -115.07  145.72 -176.83   51.45 -115.08  -50.93
 5.4825  0.363062E+05  0.111017E-02  0.113893E+03  0.229756E-01  0.273214E+07  0.220929E-04  -35.88 -117.95  -16.30  -56.82  -35.90  -41.06
 5.5295  0.278246E+05  0.118829E-02  0.288859E+03  0.166140E+00  0.212351E+07  0.761296E-05  -44.93  155.04  -34.36  161.86  -44.96   51.77
 5.5766  0.240916E+05  0.111241E-02  0.594187E+03  0.188345E+00  0.185223E+07  0.562977E-05  -60.91  177.44  -49.46   -8.79  -60.93  -15.73
 5.6236  0.215248E+05  0.866689E-03  0.146648E+04  0.925453E-01  0.166439E+07  0.359833E-04  -78.46   42.73  -54.56 -108.57  -78.46 -138.09
 5.6707  0.192471E+05  0.137352E-01  0.300499E+04  0.586432E+00  0.149708E+07  0.291421E-04  -96.31   10.03   31.13  161.97  -96.31   99.38
 5.7177  0.167299E+05  0.533037E-02  0.870104E+03  0.328880E+00  0.131224E+07  0.558718E-04 -113.77  -85.34   51.32   53.95 -113.78  102.18
 5.7648  0.131653E+05  0.177088E-02  0.394911E+03  0.109511E+00  0.105051E+07  0.395572E-04 -129.74  -74.63   38.62   69.79 -129.80  131.40
 5.8118  0.538190E+04  0.258687E-02  0.170238E+03  0.288306E+00  0.479490E+06  0.132482E-04 -139.15  -76.07   21.16   98.91 -139.56  -33.96
 5.8589  0.355426E+05  0.129032E-02  0.136522E+02  0.487395E-01  0.256446E+07  0.187068E-04   79.41  -69.09    1.81  -19.88   79.41   99.60
 5.9059  0.299857E+05  0.649606E-03  0.137312E+03  0.528617E-01  0.226075E+07  0.347308E-04  139.27  147.35  162.10 -175.34  139.25 -165.78
 5.9530  0.225950E+05  0.131037E-02  0.342105E+03  0.128339E-01  0.172559E+07  0.157939E-04  129.87  -15.20  144.13   23.19  129.84 -179.37
 6.0000  0.190587E+05  0.113563E-02  0.742042E+03  0.345850E-01  0.146687E+07  0.691870E-05  113.23    0.77  131.15  134.09  113.22  -11.18
