VARIABLES="w (rad/s)"
"abs(F   1   1)" "angle(F   1   1)"
"abs(F   1   2)" "angle(F   1   2)"
"abs(F   1   3)" "angle(F   1   3)"
"abs(F   1   4)" "angle(F   1   4)"
"abs(F   1   5)" "angle(F   1   5)"
"abs(F   1   6)" "angle(F   1   6)"
Zone t="FKforce - beta =   0.000",I=   128,F=POINT
  0.2500000E-01  0.2047156E+05 -0.1570776E+01  0.1165083E+02  0.1800163E-06  0.1312753E+07  0.4994475E-12  0.6379077E+03 -0.3141592E+01  0.3287142E+06 -0.1499291E+01  0.8661774E+00 -0.6800703E-07
  0.7204724E-01  0.1652060E+06 -0.1570797E+01  0.9532684E+01  0.3141593E+01  0.1168007E+07  0.5878778E-10  0.3100854E+03  0.5351407E-06  0.2731040E+07 -0.1563142E+01  0.1154065E-01  0.5140546E-04
  0.1190945E+00  0.4268733E+06 -0.1570796E+01  0.6971764E+01 -0.4579933E-04  0.9063254E+06 -0.4208971E-11  0.8157764E+02 -0.3141568E+01  0.7489038E+07 -0.1568629E+01  0.5234131E+00 -0.3141581E+01
  0.1661417E+00  0.7655876E+06 -0.1570797E+01  0.2728127E+02  0.1159702E-04  0.5675669E+06 -0.7393255E-10  0.5448374E+03  0.3141580E+01  0.1458707E+08 -0.1570100E+01  0.2548313E+00 -0.9213405E-04
  0.2131890E+00  0.1134403E+07 -0.1570796E+01  0.1477774E+02  0.3141588E+01  0.1986486E+06 -0.7566078E-08  0.4462124E+03 -0.3141506E+01  0.2387972E+08 -0.1570647E+01  0.3694333E+00 -0.3141591E+01
  0.2602362E+00  0.1489383E+07 -0.1570796E+01  0.9491386E+01 -0.5074133E-05  0.1565389E+06 -0.3141593E+01  0.4398271E+03  0.3141514E+01  0.3502166E+08 -0.1570876E+01  0.3897930E+00  0.3578177E-04
  0.3072835E+00  0.1797290E+07 -0.1570796E+01  0.6761780E+00 -0.2538701E-03  0.4648009E+06 -0.3141593E+01  0.1150619E+04 -0.3141547E+01  0.4745698E+08 -0.1570972E+01  0.6311965E-01 -0.3141442E+01
  0.3543307E+00  0.2039140E+07 -0.1570796E+01  0.2706230E+01 -0.4634054E-04  0.7072329E+06 -0.3141593E+01  0.4056201E+03 -0.1598031E-03  0.6047732E+08 -0.1571005E+01  0.2879682E-01 -0.3140110E+01
  0.4013779E+00  0.2209777E+07 -0.1570796E+01  0.6853485E+01  0.2616053E-04  0.8787348E+06  0.3141593E+01  0.3998494E+02  0.1880592E-02  0.7332661E+08 -0.1571011E+01  0.1981386E+00  0.3141454E+01
  0.4484252E+00  0.2314487E+07 -0.1570796E+01  0.6292618E+01  0.3141377E+01  0.9846616E+06  0.3141593E+01  0.2209746E+03 -0.4806035E-04  0.8531794E+08 -0.1571003E+01  0.6204486E-01  0.3141327E+01
  0.4954725E+00  0.2364527E+07 -0.1570796E+01  0.2218522E+01 -0.6714559E-03  0.1036357E+07  0.3141593E+01  0.3710063E+03 -0.3141405E+01  0.9592262E+08 -0.1570990E+01  0.1021475E+00  0.3141540E+01
  0.5425196E+00  0.2373049E+07 -0.1570796E+01  0.1097635E+00  0.3102273E-01  0.1047062E+07 -0.3141593E+01  0.5714443E+03 -0.1941780E-03  0.1048135E+09 -0.1570975E+01  0.2661371E-01 -0.4165696E-03
  0.5895669E+00  0.2352285E+07 -0.1570796E+01  0.4276901E+01 -0.3141476E+01  0.1029075E+07  0.3141593E+01  0.3730625E+03  0.3141408E+01  0.1118635E+09 -0.1570961E+01  0.2068049E+00  0.3141565E+01
  0.6366141E+00  0.2312012E+07 -0.1570796E+01  0.6407684E+01  0.1366286E-03  0.9922943E+06 -0.3141593E+01  0.1503662E+03  0.2638415E-03  0.1171063E+09 -0.1570948E+01  0.1977003E-01 -0.3140950E+01
  0.6836614E+00  0.2259346E+07 -0.1570796E+01  0.4980331E+01 -0.3561679E-04  0.9439155E+06 -0.3141593E+01  0.6432344E+03  0.5010081E-04  0.1206863E+09 -0.1570936E+01  0.3413520E-01 -0.3139248E+01
  0.7307087E+00  0.2199000E+07 -0.1570796E+01  0.1346352E+01  0.3485031E-03  0.8887717E+06 -0.3141593E+01  0.5231349E+02 -0.6253616E-03  0.1228047E+09 -0.1570926E+01  0.8128501E-02 -0.3132507E+01
  0.7777559E+00  0.2133960E+07 -0.1570796E+01  0.3424790E+01 -0.3141036E+01  0.8299493E+06 -0.3141593E+01  0.2946235E+03  0.3107448E-03  0.1236821E+09 -0.1570917E+01  0.2521576E-01  0.3140427E+01
  0.8248031E+00  0.2066045E+07 -0.1570796E+01  0.5701286E+01 -0.3141431E+01  0.7693799E+06 -0.3141593E+01  0.4836504E+03 -0.4124113E-03  0.1235303E+09 -0.1570908E+01  0.1657537E-01 -0.4311589E-02
  0.8718503E+00  0.1996354E+07 -0.1570796E+01  0.5058763E+01 -0.6635879E-03  0.7082935E+06  0.3141593E+01  0.1752746E+03 -0.1378975E-02  0.1225398E+09 -0.1570900E+01  0.3264834E-01 -0.3140481E+01
  0.9188976E+00  0.1925627E+07 -0.1570796E+01  0.3320421E+01  0.9317253E-03  0.6475453E+06  0.3141593E+01  0.1475059E+03  0.4485388E-03  0.1208737E+09 -0.1570892E+01  0.3404192E-01  0.3062362E-02
  0.9659449E+00  0.1854379E+07 -0.1570796E+01  0.8803483E+00 -0.5459792E-03  0.5877747E+06 -0.3141593E+01  0.5749907E+02 -0.1214354E-02  0.1186687E+09 -0.1570885E+01  0.2841838E-02 -0.2286166E-02
  0.1012992E+01  0.1783013E+07 -0.1570796E+01  0.3660972E+00  0.2000622E-02  0.5295132E+06 -0.3141593E+01  0.1874075E+02  0.1745654E-02  0.1160374E+09 -0.1570878E+01  0.7130682E-02 -0.3130776E+01
  0.1060039E+01  0.1711858E+07 -0.1570796E+01  0.2126221E+01 -0.3141063E+01  0.4732176E+06  0.3141593E+01  0.1706323E+03  0.3141487E+01  0.1130717E+09 -0.1570871E+01  0.2312327E-01 -0.4608927E-02
  0.1107087E+01  0.1641182E+07 -0.1570796E+01  0.1791424E+01 -0.3141414E+01  0.4192849E+06  0.3141593E+01  0.3518193E+03  0.3141377E+01  0.1098459E+09 -0.1570865E+01  0.4342713E-01 -0.9388045E-03
  0.1154134E+01  0.1571195E+07 -0.1570796E+01  0.1962213E+01  0.3140275E+01  0.3680628E+06  0.3141593E+01  0.1353262E+03 -0.3141207E+01  0.1064201E+09 -0.1570858E+01  0.3335261E-01 -0.8578107E-04
  0.1201181E+01  0.1502070E+07 -0.1570796E+01  0.1354682E+00 -0.3138551E+01  0.3198403E+06  0.3141593E+01  0.8257864E+02 -0.3140812E+01  0.1028414E+09 -0.1570852E+01  0.3041592E-01  0.1246340E-02
  0.1248228E+01  0.1433924E+07 -0.1570796E+01  0.3636378E-01  0.2727836E-01  0.2748498E+06 -0.3141593E+01  0.6432052E+02 -0.2550705E-02  0.9914690E+08 -0.1570846E+01  0.3022563E-01 -0.9859949E-04
  0.1295276E+01  0.1366812E+07 -0.1570796E+01  0.4692727E+00  0.3141024E+01  0.2332638E+06  0.3141593E+01  0.5373828E+02 -0.2453296E-03  0.9536466E+08 -0.1570840E+01  0.2110397E-01  0.2197333E-02
  0.1342323E+01  0.1300747E+07 -0.1570796E+01  0.6210672E+00  0.3140868E+01  0.1951945E+06  0.3141593E+01  0.4972168E+02  0.3141131E+01  0.9151508E+08 -0.1570835E+01  0.1246465E-02 -0.1080729E-01
  0.1389370E+01  0.1235702E+07 -0.1570796E+01  0.8420191E+00  0.3140070E+01  0.1606956E+06 -0.3141593E+01  0.3418825E+02 -0.1056878E-02  0.8761143E+08 -0.1570829E+01  0.1317759E-03  0.4071990E-01
  0.1436417E+01  0.1171609E+07 -0.1570796E+01  0.2114667E+00  0.2778046E-02  0.1297630E+06 -0.3141593E+01  0.6436832E+02 -0.1069589E-02  0.8366252E+08 -0.1570824E+01  0.1745525E-02  0.6146519E-02
  0.1483464E+01  0.1108367E+07 -0.1570796E+01  0.1609192E-01 -0.2797634E-01  0.1023416E+06 -0.3141593E+01  0.2170682E+02 -0.6028529E-02  0.7967281E+08 -0.1570819E+01  0.8121165E-02 -0.6752268E-03
  0.1530512E+01  0.1045860E+07 -0.1570796E+01  0.5358332E+00 -0.3140155E+01  0.7832652E+05 -0.3141593E+01  0.2991516E+02  0.6871699E-02  0.7564308E+08 -0.1570815E+01  0.3962272E-02 -0.3140901E+01
  0.1577559E+01  0.9839542E+06 -0.1570796E+01  0.7253503E-01 -0.3133493E+01  0.5757234E+05 -0.3141593E+01  0.5101895E+01  0.3110866E+01  0.7157276E+08 -0.1570811E+01  0.7124579E-02 -0.3136222E+01
  0.1624606E+01  0.9225199E+06 -0.1570796E+01  0.5542178E+00 -0.1238946E-02  0.3989776E+05  0.3141593E+01  0.6549380E+01  0.3120865E+01  0.6745978E+08 -0.1570807E+01  0.4277468E-02  0.3344295E-03
  0.1671654E+01  0.8614333E+06 -0.1570796E+01  0.8707302E-01 -0.3137737E+01  0.2509330E+05 -0.3141593E+01  0.1743767E+01 -0.3100699E+01  0.6330227E+08 -0.1570803E+01  0.1062248E-03  0.3963450E+00
  0.1718701E+01  0.8005928E+06 -0.1570796E+01  0.3444253E+00  0.8417413E-03  0.1292836E+05  0.3141593E+01  0.1235268E+02 -0.3123171E+01  0.5909882E+08 -0.1570800E+01  0.7282500E-03 -0.1145850E-02
  0.1765748E+01  0.7399184E+06 -0.1570796E+01  0.1821290E+00  0.1131032E-02  0.3158121E+04 -0.3141592E+01  0.1773351E+02 -0.3131818E+01  0.5484956E+08 -0.1570797E+01  0.1232457E-02  0.3130856E+01
  0.1812795E+01  0.6793739E+06 -0.1570796E+01  0.1193659E+00 -0.3139547E+01  0.4469652E+04 -0.2799370E-06  0.4230100E+01  0.3134090E+01  0.5055738E+08 -0.1570795E+01  0.4007948E-02 -0.3139124E+01
  0.1859842E+01  0.6189614E+06 -0.1570796E+01  0.1949124E+00  0.2231134E-02  0.1020854E+05 -0.2301850E-06  0.7403389E+01  0.4287007E-02  0.4622772E+08 -0.1570792E+01  0.3140077E-02 -0.3129672E+01
  0.1906890E+01  0.5587355E+06 -0.1570796E+01  0.1697764E-01  0.4540287E-01  0.1430812E+05 -0.8104961E-07  0.2535927E+01  0.3116944E+01  0.4186924E+08 -0.1570790E+01  0.1338350E-03 -0.2958871E+01
  0.1953937E+01  0.4988028E+06 -0.1570796E+01  0.5662814E-01  0.3131690E+01  0.1700902E+05 -0.7445929E-07  0.9018201E+01 -0.5468569E-02  0.3749471E+08 -0.1570788E+01  0.1115817E-02  0.3135984E+01
  0.2000984E+01  0.4393242E+06 -0.1570796E+01  0.2996065E-01 -0.1145912E-02  0.1853935E+05 -0.1028811E-07  0.2942080E+01 -0.3120182E+01  0.3312041E+08 -0.1570786E+01  0.5522363E-05  0.1000756E+01
  0.2048032E+01  0.3805162E+06 -0.1570796E+01  0.1670878E-01  0.3134629E+01  0.1911151E+05 -0.5269496E-07  0.6345282E+00  0.7355533E-01  0.2876659E+08 -0.1570784E+01  0.3589968E-03  0.3110208E+01
  0.2095079E+01  0.3226478E+06 -0.1570796E+01  0.1793054E-02 -0.3128827E+01  0.1892003E+05 -0.7460022E-08  0.1634777E+01 -0.3733555E-02  0.2445751E+08 -0.1570782E+01  0.2385059E-03  0.3099971E+01
  0.2142126E+01  0.2660388E+06 -0.1570796E+01  0.5472329E-02 -0.1323097E+00  0.1814025E+05 -0.4200524E-07  0.9819938E+00 -0.3027291E+01  0.2022065E+08 -0.1570780E+01  0.2318805E-04  0.1321454E+01
  0.2189173E+01  0.2110517E+06 -0.1570796E+01  0.1356822E-02 -0.2606688E+01  0.1692748E+05  0.5295849E-08  0.1691740E+00 -0.5122322E+00  0.1608679E+08 -0.1570778E+01  0.7629488E-04 -0.3062360E+01
  0.2236220E+01  0.1580860E+06 -0.1570796E+01  0.6389569E-02  0.3433537E-01  0.1541698E+05 -0.5072413E-07  0.7505050E+00 -0.2964518E+01  0.1208920E+08 -0.1570773E+01  0.1435470E-05  0.3058451E+01
  0.2283268E+01  0.1075666E+06 -0.1570796E+01  0.1612796E-01  0.2957018E-01  0.1372421E+05 -0.6392939E-08  0.3390940E+00 -0.2044556E+00  0.8262982E+07 -0.1570767E+01  0.1660011E-03 -0.3114300E+01
  0.2330315E+01  0.5993604E+05 -0.1570796E+01  0.5192543E-02 -0.4188725E-01  0.1194581E+05 -0.4853871E-07  0.2675295E+01 -0.1095090E-02  0.4644348E+07 -0.1570750E+01  0.6803436E-04  0.1141402E+00
  0.2377362E+01  0.1564114E+05 -0.1570796E+01  0.1124986E-01  0.3021948E+01  0.1016053E+05 -0.3303897E-07  0.2427076E+01 -0.3125397E+01  0.1269652E+07 -0.1570653E+01  0.4740864E-03  0.3103237E+01
  0.2424410E+01  0.2488160E+05  0.1570796E+01  0.3464645E-01 -0.3118799E+01  0.8430729E+04 -0.1357426E-07  0.8646064E+00  0.5537320E-01  0.1825659E+07  0.1570714E+01  0.4509358E-04  0.3059549E+01
  0.2471457E+01  0.6121725E+05  0.1570796E+01  0.3076581E-01  0.3137377E+01  0.6803828E+04 -0.2130543E-07  0.1450968E+01  0.7403533E-02  0.4607964E+07  0.1570770E+01  0.9039265E-03  0.6989665E-02
  0.2518504E+01  0.9299002E+05  0.1570796E+01  0.6259157E-01  0.6094587E-03  0.5313854E+04 -0.5743022E-08  0.1773958E+01 -0.6055527E-02  0.7046754E+07  0.1570783E+01  0.9445078E-03 -0.3016952E-01
  0.2565551E+01  0.1198745E+06  0.1570796E+01  0.2637029E-01  0.3126258E+01  0.3983188E+04  0.9002375E-07  0.2550293E+01  0.1914608E-03  0.9115563E+07  0.1570789E+01  0.2697105E-03  0.3099591E+01
  0.2612598E+01  0.1416124E+06  0.1570796E+01  0.2062069E-01 -0.3106437E+01  0.2824130E+04  0.0000000E+00  0.4304337E+01 -0.3138870E+01  0.1079318E+08  0.1570792E+01  0.1896285E-03 -0.5283087E-01
  0.2659646E+01  0.1580251E+06  0.1570796E+01  0.5165385E-01  0.3135537E+01  0.1840519E+04  0.4145241E-08  0.1388237E+01 -0.3118376E+01  0.1206461E+08  0.1570794E+01  0.1156306E-02 -0.3136232E+01
  0.2706693E+01  0.1690248E+06  0.1570796E+01  0.4963726E-01  0.3131909E+01  0.1029283E+04  0.1260097E-06  0.3582472E+01  0.2725950E-02  0.1292201E+08  0.1570795E+01  0.2145207E-03 -0.3089890E+01
  0.2753740E+01  0.1746261E+06  0.1570796E+01  0.3670143E-01 -0.3138059E+01  0.3818651E+03  0.3196687E-06  0.1850037E+01 -0.3133411E+01  0.1336554E+08  0.1570796E+01  0.3673707E-03  0.2174276E-01
  0.2800787E+01  0.1749526E+06  0.1570796E+01  0.3560770E-02  0.3055782E+01  0.1144170E+03  0.3141592E+01  0.9893106E+00  0.3307435E-01  0.1340379E+08  0.1570796E+01  0.4620591E-03  0.4127943E-02
  0.2847835E+01  0.1702419E+06  0.1570796E+01  0.3999784E-02  0.3147815E-01  0.4751420E+03  0.3141592E+01  0.2326389E+00  0.3051218E+01  0.1305433E+08  0.1570797E+01  0.6413106E-03  0.3125420E+01
  0.2894882E+01  0.1608477E+06  0.1570796E+01  0.4246005E-02 -0.3130811E+01  0.7176860E+03  0.3141592E+01  0.3052820E+00 -0.3079174E+01  0.1234374E+08  0.1570797E+01  0.7496750E-04 -0.7719874E-01
  0.2941929E+01  0.1472365E+06  0.1570796E+01  0.1078849E-01  0.3131692E+01  0.8602620E+03 -0.3141593E+01  0.3227584E+00  0.7799020E-01  0.1130737E+08  0.1570798E+01  0.1038546E-03 -0.1092629E+00
  0.2988976E+01  0.1299810E+06  0.1570796E+01  0.1423522E-02 -0.7913547E-01  0.9210848E+03  0.3141593E+01  0.2852068E+00 -0.3122759E+01  0.9988962E+07  0.1570798E+01  0.2213091E-04 -0.4877393E+00
  0.3036024E+01  0.1097501E+06  0.1570796E+01  0.6172395E-03  0.2695911E+01  0.9176926E+03  0.3141593E+01  0.7666336E-01 -0.2764930E+01  0.8439703E+07  0.1570798E+01  0.1201370E-05 -0.1051650E+01
  0.3083071E+01  0.8729275E+05  0.1570796E+01  0.5482321E-03  0.2278908E+00  0.8664041E+03  0.3141593E+01  0.1206460E+00  0.3740330E+00  0.6717130E+07  0.1570799E+01  0.1508095E-05  0.2362308E+01
  0.3130118E+01  0.6342016E+05  0.1570796E+01  0.4632023E-02  0.6098041E-01  0.7819143E+03  0.3141593E+01  0.3247129E+00  0.6014965E-02  0.4883600E+07  0.1570799E+01  0.2900464E-04  0.5036888E-01
  0.3177165E+01  0.3898096E+05  0.1570796E+01  0.8381136E-02 -0.3088770E+01  0.6770262E+03  0.3141593E+01  0.7587897E+00  0.1287001E-02  0.3004535E+07  0.1570800E+01  0.1029970E-03 -0.1736109E-02
  0.3224213E+01  0.1483555E+05  0.1570796E+01  0.2171448E-02  0.2894910E+01  0.5624926E+03  0.3141593E+01  0.8359376E+00  0.5841121E-03  0.1146342E+07  0.1570805E+01  0.6036468E-04  0.3103074E+01
  0.3271260E+01  0.8171867E+04 -0.1570796E+01  0.2182060E-03 -0.2207304E+01  0.4469794E+03  0.3141593E+01  0.1028414E+01  0.2564149E-01  0.6257719E+06 -0.1570809E+01  0.6477292E-04 -0.2047948E+00
  0.3318307E+01  0.2924429E+05 -0.1570796E+01  0.3098664E-02 -0.2184019E+00  0.3371207E+03  0.3141593E+01  0.7970379E+00 -0.3121375E+01  0.2250133E+07 -0.1570799E+01  0.2158509E-03 -0.4917238E-01
  0.3365355E+01  0.4766179E+05 -0.1570796E+01  0.2308464E-01  0.0000000E+00  0.2376434E+03 -0.3141593E+01  0.2353527E+00 -0.3095934E+01  0.3670967E+07 -0.1570797E+01  0.2386306E-03 -0.3118611E+01
  0.3412401E+01  0.6281073E+05 -0.1570796E+01  0.1653472E-02 -0.1063260E+00  0.1515614E+03  0.3141593E+01  0.1152614E+01 -0.3134815E+01  0.4840644E+07 -0.1570797E+01  0.1374665E-03  0.3134655E+01
  0.3459449E+01  0.7421093E+05 -0.1570796E+01  0.2548491E-02  0.6290901E-01  0.8040282E+02  0.3141593E+01  0.2277951E+00 -0.3430289E-01  0.5721834E+07 -0.1570797E+01  0.3806257E-03 -0.3123113E+01
  0.3506496E+01  0.8153744E+05 -0.1570796E+01  0.1930667E-01 -0.3134480E+01  0.2447239E+02 -0.3141592E+01  0.1255982E+01 -0.1166294E-02  0.6289154E+07 -0.1570796E+01  0.8812039E-04  0.3106413E+01
  0.3553543E+01  0.8463847E+05 -0.1570796E+01  0.4106296E-02 -0.3061615E+01  0.1688547E+02 -0.1694370E-06  0.5263584E+00 -0.3098907E+01  0.6530571E+07 -0.1570796E+01  0.6474996E-05 -0.3770876E+00
  0.3600591E+01  0.8354541E+05 -0.1570796E+01  0.7556803E-02  0.3110290E+01  0.4502845E+02 -0.1111917E-06  0.3506686E+00 -0.3098414E+01  0.6448232E+07 -0.1570796E+01  0.9186702E-04 -0.1881673E-01
  0.3647638E+01  0.7847509E+05 -0.1570796E+01  0.1184775E-02 -0.3080379E+01  0.6177196E+02  0.4824571E-07  0.1248256E+00  0.2950718E+01  0.6058653E+07 -0.1570796E+01  0.3141543E-04  0.1639010E+00
  0.3694685E+01  0.6982460E+05 -0.1570796E+01  0.2499791E-02 -0.3111068E+01  0.6917435E+02  0.5342281E-07  0.6582053E+00 -0.2596433E-02  0.5392268E+07 -0.1570796E+01  0.1942234E-04 -0.2926326E+00
  0.3741732E+01  0.5815478E+05 -0.1570796E+01  0.1337494E-02  0.2221492E+00  0.6935403E+02  0.1611423E-06  0.1786441E+00 -0.3040632E+01  0.4492227E+07 -0.1570796E+01  0.1460600E-04  0.3014242E+00
  0.3788780E+01  0.4416719E+05 -0.1570796E+01  0.5732749E-03 -0.2734517E+01  0.6434420E+02 -0.3705362E-08  0.2297130E-01 -0.3097738E+01  0.3412620E+07 -0.1570796E+01  0.1117293E-04 -0.2899849E+01
  0.3835827E+01  0.2867112E+05 -0.1570796E+01  0.3585866E-03  0.5319099E-02  0.5598485E+02 -0.2981039E-07  0.1339828E+00  0.3087812E+01  0.2215904E+07 -0.1570796E+01  0.2790632E-04 -0.1338924E+00
  0.3882874E+01  0.1254388E+05 -0.1570796E+01  0.6878322E-02  0.1109217E-01  0.4585053E+02  0.0000000E+00  0.3120117E+00  0.0000000E+00  0.9698552E+06 -0.1570795E+01  0.1884346E-04 -0.1620286E+00
  0.3929921E+01  0.3314402E+04  0.1570796E+01  0.7789612E-02  0.3141593E+01  0.3521275E+02  0.0000000E+00  0.8255889E-01  0.3058697E+01  0.2559261E+06  0.1570794E+01  0.5853422E-04  0.9164712E-02
  0.3976969E+01  0.1802894E+05  0.1570796E+01  0.3175625E-02 -0.3364115E-01  0.2503002E+02 -0.9049040E-07  0.1768124E+00 -0.2485676E-01  0.1393755E+07  0.1570796E+01  0.8261625E-04 -0.1010067E-01
  0.4024016E+01  0.3079976E+05  0.1570796E+01  0.4116149E-02  0.3045059E+01  0.1596136E+02  0.2016527E-06  0.3894177E+00 -0.3637040E-01  0.2381685E+07  0.1570796E+01  0.1225304E-03  0.1459395E-01
  0.4071063E+01  0.4094836E+05  0.1570796E+01  0.9289878E-02  0.3130095E+01  0.8397126E+01  0.1135715E-06  0.4870227E-01 -0.3372071E+00  0.3167123E+07  0.1570796E+01  0.3983213E-05  0.1953213E+01
  0.4118111E+01  0.4795945E+05  0.1570796E+01  0.4128562E-03 -0.2671747E+01  0.2501027E+01 -0.4528093E-06  0.7385900E-01  0.3128370E+01  0.3710082E+07  0.1570796E+01  0.1154027E-04 -0.2869678E+01
  0.4165157E+01  0.5151369E+05  0.1570796E+01  0.1938501E-02  0.3116008E+01  0.1741585E+01  0.3141592E+01  0.5580309E-01  0.2746939E+00  0.3985726E+07  0.1570796E+01  0.3813622E-04  0.3047678E+01
  0.4212204E+01  0.5151076E+05  0.1570796E+01  0.3192904E-02 -0.3140398E+01  0.4474887E+01 -0.3141593E+01  0.6550662E-01  0.3093123E+01  0.3986151E+07  0.1570796E+01  0.4965672E-04 -0.3125988E+01
  0.4259252E+01  0.4807755E+05  0.1570796E+01  0.1442279E-02 -0.2116086E-01  0.5925596E+01  0.3141593E+01  0.1532457E-01  0.2749253E+01  0.3721052E+07  0.1570796E+01  0.5357287E-04 -0.4229103E-01
  0.4306299E+01  0.4156328E+05  0.1570796E+01  0.8420572E-03 -0.2823444E+00  0.6362133E+01 -0.3141593E+01  0.6394073E-01  0.3021026E+01  0.3217348E+07  0.1570796E+01  0.7461063E-05  0.2373142E+01
  0.4353347E+01  0.3251829E+05  0.1570796E+01  0.7361885E-04 -0.1143365E+01  0.6060942E+01 -0.3141593E+01  0.1649317E-01  0.1630041E+01  0.2517556E+07  0.1570796E+01  0.2953479E-05  0.2221109E+01
  0.4400393E+01  0.2165949E+05  0.1570796E+01  0.2061900E-03 -0.2763937E+00  0.5280921E+01 -0.3141593E+01  0.5884144E-01 -0.2983265E+01  0.1677107E+07  0.1570796E+01  0.1597416E-05  0.2210566E+01
  0.4447441E+01  0.9820903E+04  0.1570796E+01  0.6037625E-03 -0.3247476E+00  0.4246094E+01 -0.3141593E+01  0.1421152E+00  0.3022778E+01  0.7605551E+06  0.1570796E+01  0.1276667E-04  0.3099561E+01
  0.4494488E+01  0.2103392E+04 -0.1570796E+01  0.3936594E-02 -0.9802946E-01  0.3135914E+01 -0.3141593E+01  0.2940365E+00  0.3116681E+01  0.1628768E+06 -0.1570797E+01  0.2104255E-04  0.3127429E+01
  0.4541535E+01  0.1322460E+05 -0.1570796E+01  0.2571151E-02  0.5934648E-02  0.2082088E+01 -0.3141592E+01  0.3279521E+00  0.2084583E-01  0.1024329E+07 -0.1570796E+01  0.1119711E-04  0.2522581E+01
  0.4588583E+01  0.2272566E+05 -0.1570796E+01  0.5310338E-02 -0.3120040E+01  0.1170369E+01 -0.3141593E+01  0.1129763E+00 -0.3068053E+01  0.1760476E+07 -0.1570796E+01  0.5661566E-04  0.3126853E+01
  0.4635630E+01  0.2992406E+05 -0.1570796E+01  0.3514588E-02  0.1302504E-01  0.4461437E+00  0.3141593E+01  0.7669067E-01  0.0000000E+00  0.2318380E+07 -0.1570796E+01  0.3127654E-04  0.3084389E+01
  0.4682677E+01  0.3432664E+05 -0.1570796E+01  0.3196858E-02  0.3105787E+01  0.7794005E-01 -0.3489171E-05  0.7733518E-01  0.3072085E+01  0.2659769E+07 -0.1570796E+01  0.9575577E-04 -0.3137235E+01
  0.4729724E+01  0.3567037E+05 -0.1570796E+01  0.3456461E-03 -0.2952855E+01  0.4133851E+00 -0.4686068E-06  0.1526443E+00 -0.2719329E-01  0.2764182E+07 -0.1570796E+01  0.2114075E-05 -0.1946067E+01
  0.4776772E+01  0.3394555E+05 -0.1570796E+01  0.1712085E-02  0.1611194E+00  0.5873440E+00  0.3789706E-06  0.1004561E+00  0.1095837E+00  0.2630795E+07 -0.1570796E+01  0.1542241E-04  0.1162056E+00
  0.4823819E+01  0.2939876E+05 -0.1570796E+01  0.6939945E-03 -0.2961985E+01  0.6351406E+00 -0.9127874E-07  0.4263733E-02 -0.1339706E+01  0.2278642E+07 -0.1570796E+01  0.1561744E-04 -0.3130143E+01
  0.4870866E+01  0.2251402E+05 -0.1570796E+01  0.7597329E-04  0.2503740E+01  0.5940920E+00 -0.1881168E-07  0.2441835E-02  0.1874780E-01  0.1745187E+07 -0.1570796E+01  0.2407721E-05  0.2526874E+01
  0.4917913E+01  0.1397219E+05 -0.1570796E+01  0.3015557E-03  0.2862859E+01  0.4989783E+00 -0.1157205E-06  0.2302992E-01  0.6689463E+00  0.1083164E+07 -0.1570796E+01  0.1740823E-05 -0.9067501E+00
  0.4964961E+01  0.4591940E+04 -0.1570797E+01  0.2433945E-02 -0.1175494E-01  0.3791135E+00 -0.3881397E-06  0.1898204E+00 -0.3602045E-01  0.3560140E+06 -0.1570797E+01  0.1216650E-04 -0.3430027E-01
  0.5012008E+01  0.4742491E+04  0.1570797E+01  0.4730723E-02 -0.3127078E+01  0.2568921E+00  0.1160111E-06  0.1445387E-01  0.6536359E+00  0.3677122E+06  0.1570797E+01  0.4888021E-04 -0.1341383E-01
  0.5059055E+01  0.1316322E+05  0.1570796E+01  0.1721605E-02  0.3081731E+01  0.1475057E+00 -0.1515314E-06  0.1070342E+00 -0.4335182E-01  0.1020709E+07  0.1570796E+01  0.2778497E-05 -0.1174355E+01
  0.5106102E+01  0.1989981E+05  0.1570796E+01  0.6362204E-02 -0.3140393E+01  0.5955300E-01 -0.1266723E-05  0.4882294E-01  0.1000123E-01  0.1543209E+07  0.1570796E+01  0.1822185E-04  0.3092507E+01
  0.5153150E+01  0.2435408E+05  0.1570796E+01  0.3667992E-02 -0.3132233E+01  0.3813938E-02 -0.3141590E+01  0.5844568E-01 -0.1806007E+00  0.1888780E+07  0.1570796E+01  0.4673551E-05  0.1022067E+00
  0.5200197E+01  0.2615915E+05  0.1570796E+01  0.6067767E-03  0.3197625E+00  0.4347155E-01 -0.3141591E+01  0.9164676E-01 -0.4530232E-01  0.2028927E+07  0.1570796E+01  0.1293435E-04 -0.4608262E-02
  0.5247244E+01  0.2521741E+05  0.1570796E+01  0.1141298E-02 -0.3106490E+01  0.6289320E-01 -0.3141592E+01  0.3956962E-01  0.3085440E-01  0.1956032E+07  0.1570796E+01  0.3410511E-05 -0.3054097E+01
  0.5294291E+01  0.2171163E+05  0.1570796E+01  0.1254497E-02 -0.3069310E+01  0.6686385E-01 -0.3141593E+01  0.5161265E-01 -0.2266216E+00  0.1684220E+07  0.1570796E+01  0.2906605E-05 -0.2698492E+00
  0.5341339E+01  0.1608766E+05  0.1570796E+01  0.1686279E-03  0.3045300E+01  0.6045165E-01 -0.3141592E+01  0.1079408E-01 -0.1661392E+01  0.1248041E+07  0.1570796E+01  0.3862724E-05  0.1578553E+00
  0.5388386E+01  0.9008338E+04  0.1570796E+01  0.1453720E-03  0.2807395E+01  0.4827748E-01 -0.3141592E+01  0.6546657E-01 -0.3356947E-01  0.6988923E+06  0.1570796E+01  0.6546750E-05 -0.1831108E+00
  0.5435433E+01  0.1283754E+04  0.1570795E+01  0.9281814E-03  0.3003474E+01  0.3407929E-01 -0.3141592E+01  0.4712167E-01 -0.1036232E-01  0.9960392E+05  0.1570795E+01  0.1079486E-05  0.1681454E+01
  0.5482480E+01  0.6216552E+04 -0.1570796E+01  0.5827536E-03 -0.3082645E+01  0.2053204E-01 -0.3141592E+01  0.1279353E-01  0.7313967E+00  0.4823588E+06 -0.1570796E+01  0.1892682E-04 -0.1574673E-01
  0.5529528E+01  0.1266052E+05 -0.1570796E+01  0.5650519E-03  0.2972004E+01  0.9262654E-02 -0.3141591E+01  0.2003101E+00  0.3118433E+01  0.9824231E+06 -0.1570796E+01  0.3848656E-05 -0.4647813E-01
  0.5576575E+01  0.1734681E+05 -0.1570796E+01  0.1031151E-02 -0.3104590E+01  0.9993912E-03 -0.3141587E+01  0.1699263E+00 -0.7183785E-02  0.1346148E+07 -0.1570796E+01  0.1132586E-05  0.1557639E+01
  0.5623622E+01  0.1978686E+05 -0.1570796E+01  0.1625728E-03  0.5424316E+00  0.4212362E-02 -0.1271283E-05  0.6894325E-01  0.3042276E+01  0.1535589E+07 -0.1570796E+01  0.2288867E-04  0.3052937E+01
  0.5670670E+01  0.1976212E+05 -0.1570796E+01  0.2342355E-02 -0.1058592E-01  0.6774059E-02 -0.5735648E-06  0.9062354E-01  0.3109259E+01  0.1533754E+07 -0.1570796E+01  0.7434111E-05 -0.2865496E+01
  0.5717716E+01  0.1735111E+05 -0.1570796E+01  0.1996804E-03  0.7583777E+00  0.7318550E-02 -0.5716536E-06  0.2863974E-01 -0.2718595E+00  0.1346707E+07 -0.1570796E+01  0.6136963E-05 -0.1954908E+00
  0.5764764E+01  0.1292054E+05 -0.1570796E+01  0.6115530E-04  0.1445716E+01  0.6537007E-02 -0.3116515E-07  0.2273560E-02  0.1570796E+01  0.1002880E+07 -0.1570796E+01  0.4447065E-06 -0.1570796E+01
  0.5811811E+01  0.7080979E+04 -0.1570796E+01  0.4015422E-03  0.1549967E+00  0.5057888E-02 -0.1323454E-06  0.9541027E-02 -0.3077578E+01  0.5496464E+06 -0.1570796E+01  0.1083182E-05 -0.1380060E+00
  0.5858858E+01  0.6107180E+03 -0.1570799E+01  0.3638589E-03  0.5152450E+00  0.3377631E-02  0.9478305E-07  0.8886853E-02  0.1849096E+01  0.4740810E+05 -0.1570801E+01  0.6056254E-05 -0.1780929E+00
  0.5905906E+01  0.5642897E+04  0.1570797E+01  0.6371001E-03  0.3129617E+01  0.1835222E-02 -0.3885327E-06  0.5750587E-01  0.3073612E+01  0.4380611E+06  0.1570797E+01  0.3398348E-04  0.3118790E+01
  0.5952953E+01  0.1087277E+05  0.1570797E+01  0.8997917E-03  0.0000000E+00  0.6192471E-03  0.7049810E-07  0.3350002E-01  0.1022067E+00  0.8440976E+06  0.1570796E+01  0.1558191E-04 -0.3041972E+01
  0.6000000E+01  0.1441876E+05  0.1570796E+01  0.5002283E-03  0.7633323E-01  0.2051484E-03 -0.3141592E+01  0.3857731E-01  0.3128935E+01  0.1119437E+07  0.1570796E+01  0.1341304E-04 -0.1068540E+00
