VARIABLES="w (rad/s)"  
"A   1   1" "B   1   1"
"A   1   2" "B   1   2"
"A   1   3" "B   1   3"
"A   1   4" "B   1   4"
"A   1   5" "B   1   5"
"A   1   6" "B   1   6"
Zone t="Motion of body    1 in DoF   1",I=   128,F=POINT
  0.2500000E-01  0.3149986E+08  0.3708163E-02  0.1012421E-01 -0.5723274E-08 -0.2712402E+01 -0.5131939E-03 -0.6264648E+00 -0.1956083E-06  0.5632463E+09  0.8167536E-01 -0.1380444E-03  0.1851006E-09
  0.7204724E-01  0.3152434E+08  0.1026441E+02 -0.3097534E-02  0.6572998E-07 -0.2397461E+01 -0.1159996E-01 -0.2124023E+00  0.4169680E-05  0.5643107E+09  0.1779275E+03 -0.1108646E-04 -0.6077591E-10
  0.1190945E+00  0.3157772E+08  0.3091186E+03  0.9071350E-02 -0.1476062E-05 -0.2552124E+01 -0.2996867E-01  0.9829102E+00 -0.3411225E-04  0.5665645E+09  0.5701409E+04 -0.5916357E-03 -0.1250918E-07
  0.1661417E+00  0.3166771E+08  0.2716168E+04  0.2672577E-01  0.4287921E-05 -0.2462036E+01 -0.3349813E-01  0.1225586E+01 -0.4824653E-04  0.5702818E+09  0.5404739E+05  0.1196861E-02 -0.1654757E-06
  0.2131890E+00  0.3179752E+08  0.1270567E+05  0.5775452E-02 -0.1666530E-04 -0.2781250E+01  0.6512568E-02  0.4394531E-01 -0.7339594E-04  0.5757998E+09  0.2774022E+06  0.1937151E-03 -0.4547735E-06
  0.2602362E+00  0.3195727E+08  0.4027297E+05 -0.1983643E-02  0.5630598E-04 -0.2701660E+01  0.6004159E-01 -0.2978516E+00  0.1899078E-02  0.5831890E+09  0.9755675E+06 -0.1494884E-03  0.7387251E-06
  0.3072835E+00  0.3212512E+08  0.9781873E+05  0.1293945E-01  0.2765644E-04 -0.3233643E+01  0.4306287E-01  0.1650391E+00 -0.2330320E-02  0.5921685E+09  0.2644625E+07  0.5614758E-04  0.5179858E-06
  0.3543307E+00  0.3227191E+08  0.1959458E+06 -0.3479004E-02 -0.8498590E-04 -0.3831909E+01 -0.2010168E+00  0.6982422E+00  0.1215417E-01  0.6019700E+09  0.5919520E+07 -0.5038977E-03  0.5675935E-07
  0.4013779E+00  0.3237112E+08  0.3399368E+06 -0.9872437E-02  0.6756135E-04 -0.3992798E+01 -0.5893860E+00  0.1476562E+01  0.1212659E-02  0.6114427E+09  0.1144251E+08 -0.3632307E-03  0.3229739E-06
  0.4484252E+00  0.3240664E+08  0.5290003E+06  0.3875732E-02 -0.9620022E-03 -0.3381714E+01 -0.1463971E+01 -0.1220703E-01 -0.3117409E-01  0.6193246E+09  0.1971978E+08  0.1616478E-03 -0.1744017E-05
  0.4954725E+00  0.3237359E+08  0.7580102E+06 -0.1962280E-01  0.4677942E-04 -0.2224487E+01 -0.1888951E+01 -0.5756836E+00 -0.2482806E-01  0.6244785E+09  0.3102888E+08 -0.1807213E-03 -0.1203448E-05
  0.5425196E+00  0.3227341E+08  0.1019952E+07 -0.5775452E-02  0.5070393E-03 -0.3983154E+00 -0.2855927E+01 -0.4482422E+00  0.2218556E-01  0.6260179E+09  0.4539271E+08  0.2601147E-03 -0.8245855E-05
  0.5895669E+00  0.3211106E+08  0.1307437E+07  0.1756287E-01  0.7680401E-03  0.1576782E+01 -0.3362194E+01 -0.5078125E+00 -0.4318117E-03  0.6233499E+09  0.6259655E+08 -0.5793571E-04 -0.8785231E-06
  0.6366141E+00  0.3189032E+08  0.1612580E+07  0.3616333E-02  0.1117105E-02  0.3202393E+01 -0.3094615E+01 -0.4052734E+00  0.7351525E-01  0.6161014E+09  0.8220307E+08 -0.2796650E-03 -0.3726214E-04
  0.6836614E+00  0.3161426E+08  0.1925993E+07  0.3860474E-02  0.9649456E-03  0.4895996E+01 -0.2746955E+01  0.2636719E+00 -0.5674924E-02  0.6040856E+09  0.1035395E+09 -0.5619526E-03 -0.4189038E-04
  0.7307087E+00  0.3128636E+08  0.2235283E+07  0.1197815E-02  0.2313569E-03  0.4045166E+01 -0.2238330E+01 -0.1117188E+01 -0.1766117E-01  0.5873595E+09  0.1256658E+09  0.1575947E-03 -0.1341452E-04
  0.7777559E+00  0.3091269E+08  0.2524754E+07  0.2207947E-01  0.1151158E-02  0.3632690E+01 -0.2047828E+01  0.1660156E-01 -0.4822998E-01  0.5662567E+09  0.1473789E+09 -0.1473427E-03  0.8650377E-04
  0.8248031E+00  0.3050407E+08  0.2775587E+07 -0.3240204E-01  0.5160054E-03  0.4163330E+01 -0.2004114E+01 -0.8203125E-01 -0.3576295E+00  0.5415148E+09  0.1672462E+09  0.3995895E-03 -0.1760003E-04
  0.8718503E+00  0.3007745E+08  0.2969074E+07  0.4783630E-02 -0.2800361E-02  0.4776123E+01 -0.1811282E+01  0.2392578E+00  0.7960743E-01  0.5143064E+09  0.1837911E+09  0.7748604E-04 -0.5300566E-05
  0.9188976E+00  0.2965428E+08  0.3089568E+07 -0.4440308E-02 -0.1360063E-02  0.5600830E+01 -0.1109475E+01 -0.4760742E+00  0.2961291E+00  0.4861934E+09  0.1957211E+09  0.1693964E-03 -0.8204631E-04
  0.9659449E+00  0.2925806E+08  0.3129118E+07 -0.9582520E-02 -0.5269246E-02  0.5283936E+01  0.3821567E+00  0.6259766E+00  0.2188469E+00  0.4588896E+09  0.2022244E+09 -0.3269911E-03  0.8037443E-04
  0.1012992E+01  0.2890928E+08  0.3088794E+07 -0.1296997E-03 -0.6182813E-04  0.5152588E+01  0.2299017E+01 -0.1508789E+00  0.1582800E-01  0.4340076E+09  0.2031300E+09 -0.2727509E-03 -0.3526136E-04
  0.1060039E+01  0.2862187E+08  0.2978912E+07 -0.2508926E-01  0.3453345E-02  0.3412170E+01  0.4360757E+01  0.9619141E-01  0.1407865E+00  0.4127357E+09  0.1989335E+09  0.2342463E-03 -0.9780769E-04
  0.1107087E+01  0.2840155E+08  0.2815874E+07  0.2049637E-01  0.1072693E-02 -0.5631104E+00 -0.1303313E+01 -0.5971680E+00 -0.1546029E+00  0.3957005E+09  0.1906287E+09 -0.2980232E-05  0.4962261E-04
  0.1154134E+01  0.2824638E+08  0.2618418E+07 -0.2681732E-02  0.1179916E-02 -0.1066895E+00 -0.1554530E+01 -0.2685547E-01 -0.1149625E+00  0.3829782E+09  0.1794325E+09  0.1624227E-03 -0.1595968E-04
  0.1201181E+01  0.2814855E+08  0.2404228E+07 -0.6837845E-02 -0.3940642E-03  0.1083374E+00 -0.1679337E+01 -0.6464844E+00 -0.1173028E+00  0.3742042E+09  0.1665625E+09 -0.7688999E-05 -0.8305133E-05
  0.1248228E+01  0.2809820E+08  0.2187190E+07  0.2044487E-01  0.1314205E-02  0.7119751E+00 -0.1625043E+01  0.5373535E+00 -0.2693930E+00  0.3687929E+09  0.1530306E+09 -0.2559125E-03 -0.2976008E-06
  0.1295276E+01  0.2808407E+08  0.1977342E+07  0.2098942E-01  0.1353857E-02  0.1533417E+01 -0.1319704E+01 -0.2453613E-01  0.3668261E-01  0.3660555E+09  0.1395950E+09 -0.3470480E-04 -0.1466884E-04
  0.1342323E+01  0.2809635E+08  0.1781135E+07  0.1131535E-01  0.8192888E-04 -0.6744019E+01  0.5512831E+01 -0.8120728E-01  0.1573035E-01  0.3653338E+09  0.1267727E+09 -0.1396090E-03  0.7200781E-05
  0.1389370E+01  0.2812705E+08  0.1601583E+07  0.2997518E-03 -0.9858048E-03  0.3747864E+00 -0.5914829E+00 -0.1645641E+00  0.1356807E-01  0.3660683E+09  0.1148491E+09  0.5796854E-03  0.9937548E-05
  0.1436417E+01  0.2816954E+08  0.1439882E+07 -0.4392624E-02  0.1073982E-02  0.1489059E+01 -0.3224575E+00 -0.1095581E+00 -0.4909629E-02  0.3678049E+09  0.1039631E+09 -0.1543537E-03  0.1027406E-05
  0.1483464E+01  0.2821877E+08  0.1296125E+07 -0.1951790E-01  0.2569171E-02  0.1704742E+01  0.2897391E-01  0.1138916E+00  0.5505044E-01  0.3701787E+09  0.9416919E+08 -0.2605170E-03 -0.5305282E-04
  0.1530512E+01  0.2827166E+08  0.1168534E+07  0.9461403E-02  0.1167688E-04  0.2001480E+01  0.5620782E+00 -0.3382568E+00  0.1718836E-01  0.3729507E+09  0.8538948E+08 -0.6183982E-04 -0.2079944E-04
  0.1577559E+01  0.2832551E+08  0.1056224E+07  0.5483627E-03 -0.2479379E-02  0.1976715E+01  0.1484691E+01  0.2678223E+00  0.5700165E-01  0.3759145E+09  0.7758949E+08  0.5371869E-04  0.1015522E-04
  0.1624606E+01  0.2837903E+08  0.9573758E+06  0.1782036E-01 -0.1251871E-02  0.2349670E+01  0.2986196E+01  0.2093506E+00  0.4283630E-01  0.3789610E+09  0.7066663E+08  0.3639907E-03  0.4764237E-04
  0.1671654E+01  0.2843086E+08  0.8704009E+06 -0.9555817E-03  0.1460299E-02  0.2278595E+01  0.5076994E+01  0.2563477E-02  0.1305979E-01  0.3819857E+09  0.6452919E+08  0.1875758E-03 -0.2132260E-04
  0.1718701E+01  0.2848048E+08  0.7939348E+06 -0.2611160E-01  0.3737104E-03  0.2409973E+00  0.3829941E+00  0.1826172E+00 -0.5035256E-02  0.3849411E+09  0.5909042E+08  0.6824732E-05  0.1065402E-04
  0.1765748E+01  0.2852747E+08  0.7265542E+06 -0.6959915E-02 -0.1050784E-02  0.4566956E+00  0.5706565E+00  0.1915283E+00  0.3793599E-01  0.3877772E+09  0.5426782E+08 -0.2720058E-03 -0.2104936E-05
  0.1812795E+01  0.2857175E+08  0.6671866E+06 -0.7577896E-02 -0.8989845E-04 -0.1176758E+00  0.4834047E+00 -0.1757812E+00 -0.5842016E-01  0.3904852E+09  0.4998910E+08  0.7975101E-03  0.4116744E-04
  0.1859842E+01  0.2861330E+08  0.6145799E+06  0.3347397E-02 -0.8158946E-03 -0.1319550E+01 -0.1747575E+00 -0.4793701E+00  0.7037978E-01  0.3930459E+09  0.4617602E+08 -0.4763007E-03  0.2028651E-04
  0.1906890E+01  0.2865194E+08  0.5679714E+06  0.2264023E-02 -0.1745810E-03 -0.3660889E+00 -0.3722066E+00  0.2576904E+00  0.2746741E-01  0.3954554E+09  0.4277711E+08  0.4443526E-03  0.6592250E-05
  0.1953937E+01  0.2868802E+08  0.5264669E+06  0.2170563E-02  0.6037479E-03 -0.9382935E+00  0.1110538E+01  0.1127930E+01 -0.9397597E-01  0.3977185E+09  0.3973416E+08 -0.1555979E-03  0.2154579E-04
  0.2000984E+01  0.2872162E+08  0.4894204E+06 -0.6254196E-02 -0.3358586E-03  0.2707214E+01  0.5436237E+01 -0.5615234E-02 -0.7669788E-01  0.3998401E+09  0.3700108E+08  0.2993047E-03 -0.2015628E-04
  0.2048032E+01  0.2875287E+08  0.4561739E+06 -0.9937286E-02  0.7734494E-03 -0.7578735E+00  0.6481163E+01  0.7397461E-01  0.2500039E-02  0.4018270E+09  0.3454274E+08 -0.6625056E-04  0.1586939E-05
  0.2095079E+01  0.2878200E+08  0.4261941E+06 -0.2181435E-01 -0.5994068E-03 -0.3062042E+01  0.5238640E+01 -0.2908936E+00  0.9309188E-01  0.4036844E+09  0.3231772E+08 -0.4410148E-03  0.1386128E-04
  0.2142126E+01  0.2880904E+08  0.3988388E+06 -0.1358700E-01  0.1879459E-03 -0.5220215E+01  0.1391160E+01 -0.7751465E+00 -0.7426316E-01  0.4054158E+09  0.3028470E+08  0.3024936E-03 -0.2042891E-05
  0.2189173E+01  0.2883423E+08  0.3738331E+06  0.2088165E-01 -0.6430296E-03 -0.5510376E+01 -0.1577644E+02 -0.1599121E-01  0.2565438E-01  0.4070363E+09  0.2842202E+08  0.1594424E-04  0.0000000E+00
  0.2236220E+01  0.2885773E+08  0.3507935E+06 -0.1830959E-01 -0.3753421E-03  0.1930344E+02 -0.1938625E+01  0.1613770E+00  0.1031850E+00  0.4085604E+09  0.2670891E+08  0.1704693E-03 -0.2839058E-04
  0.2283268E+01  0.2888003E+08  0.3296787E+06  0.3490448E-03  0.9580973E-03 -0.7548523E+00 -0.2753258E+01 -0.1586914E-01 -0.7413931E-01  0.4100035E+09  0.2512447E+08 -0.1944602E-03 -0.2857961E-05
  0.2330315E+01  0.2890121E+08  0.3093273E+06  0.2903748E-01  0.1777889E-04  0.1594452E+01 -0.5632416E+01 -0.1054321E+01  0.1103714E+00  0.4113894E+09  0.2360274E+08  0.8645654E-04  0.1013953E-04
  0.2377362E+01  0.2892351E+08  0.2836890E+06  0.4908562E-02 -0.8162025E-04 -0.3834229E+00  0.7103701E+01  0.1075806E+01 -0.7719462E-01  0.4128778E+09  0.2173132E+08 -0.2740175E-03 -0.4676161E-05
  0.2424410E+01  0.2892799E+08  0.2960288E+06 -0.1470375E-01  0.4994130E-03  0.5718994E-01 -0.1712376E+01  0.1929932E+00 -0.1479742E-01  0.4130153E+09  0.2244059E+08 -0.2447963E-03  0.1141598E-04
  0.2471457E+01  0.2895088E+08  0.2693184E+06  0.3020287E-02 -0.8249376E-03  0.4273621E+01 -0.1383920E+02  0.1273193E+00  0.8990405E-01  0.4145724E+09  0.2053149E+08  0.7653236E-04  0.1951861E-04
  0.2518504E+01  0.2896767E+08  0.2529165E+06  0.5130768E-03  0.1825393E-03  0.3368042E+01  0.1669139E+01 -0.1502686E+00  0.1998325E-01  0.4156847E+09  0.1931653E+08  0.7601678E-03 -0.6755154E-05
  0.2565551E+01  0.2898297E+08  0.2386385E+06 -0.9806633E-02 -0.6312487E-03 -0.1987915E+00  0.5869585E+01 -0.3189697E+00 -0.3444954E-02  0.4166961E+09  0.1824922E+08  0.2356768E-03  0.9557423E-05
  0.2612598E+01  0.2899736E+08  0.2256644E+06  0.3275871E-02  0.2989882E-04 -0.2335632E+01  0.5642305E+00 -0.2270508E-01  0.4337322E-01  0.4176386E+09  0.1727671E+08 -0.1463443E-03  0.5450305E-06
  0.2659646E+01  0.2901087E+08  0.2136494E+06  0.1616478E-01  0.5174329E-03  0.1098022E+01 -0.7798384E+01  0.4993896E+00 -0.4967356E-01  0.4185282E+09  0.1637464E+08  0.1018941E-03  0.7054462E-05
  0.2706693E+01  0.2902369E+08  0.2024430E+06 -0.3387451E-02 -0.2168295E-03  0.1329224E+01  0.1525859E+02  0.1676025E+00  0.3898801E-01  0.4193700E+09  0.1553317E+08 -0.3707707E-03 -0.7743911E-05
  0.2753740E+01  0.2903579E+08  0.1920075E+06  0.1010895E-03  0.6880569E-03  0.1325867E+01  0.2194581E+01 -0.1491699E+00  0.2890889E-01  0.4201674E+09  0.1474369E+08  0.3550351E-03  0.5006139E-05
  0.2800787E+01  0.2904725E+08  0.1822534E+06 -0.6914139E-02 -0.5502341E-03 -0.6890869E+00 -0.4310576E+00  0.6367798E+00 -0.1367572E-01  0.4209246E+09  0.1400363E+08 -0.1827329E-03  0.2504099E-06
  0.2847835E+01  0.2905806E+08  0.1730566E+06  0.1543427E-01  0.3041816E-03 -0.5767822E-01 -0.2451785E+00 -0.2698364E+00 -0.9386174E-02  0.4216418E+09  0.1330951E+08 -0.4561245E-04  0.7893104E-05
  0.2894882E+01  0.2906840E+08  0.1645131E+06 -0.5214691E-02 -0.5742411E-03  0.7019043E-02 -0.1691090E+01 -0.3388062E+00  0.3922509E-01  0.4223237E+09  0.1265758E+08 -0.3855824E-03 -0.8627421E-06
  0.2941929E+01  0.2907823E+08  0.1564434E+06 -0.1458549E-01  0.4545141E-03 -0.2547607E+00 -0.2461404E+01 -0.5548096E+00  0.1795611E-01  0.4229758E+09  0.1204668E+08 -0.2927184E-03 -0.1472962E-04
  0.2988976E+01  0.2908760E+08  0.1489326E+06  0.1212692E-01  0.1140204E-02 -0.3474182E+01 -0.2644440E+02 -0.2688599E+00 -0.2845949E-01  0.4235945E+09  0.1146904E+08 -0.1058131E-03 -0.1416347E-04
  0.3036024E+01  0.2909639E+08  0.1415430E+06 -0.7580757E-02  0.1465061E-02  0.1450500E+02 -0.1756132E+02  0.3292847E+00 -0.2964867E-01  0.4241797E+09  0.1092079E+08 -0.9612739E-04 -0.1103863E-04
  0.3083071E+01  0.2910486E+08  0.1345586E+06  0.2232552E-02 -0.1123174E-02 -0.3247131E+01 -0.9373230E+01  0.1659546E+00 -0.2371014E-01  0.4247331E+09  0.1038789E+08 -0.3494918E-03 -0.2039795E-04
  0.3130118E+01  0.2911289E+08  0.1274377E+06  0.6635666E-02  0.5522460E-03 -0.1022522E+01 -0.1120701E+02 -0.5494385E+00  0.1184493E-01  0.4252550E+09  0.9850306E+07 -0.7606149E-03  0.1399272E-05
  0.3177165E+01  0.2912028E+08  0.1192365E+06  0.7254601E-02  0.3151180E-03  0.2078308E+01  0.1268710E+01  0.9100342E-01  0.0000000E+00  0.4257391E+09  0.9243198E+07  0.8466840E-04  0.1429772E-04
  0.3224213E+01  0.2912673E+08  0.1034871E+06  0.3613472E-02 -0.2675118E-03  0.2338257E+01  0.8190343E+01 -0.4113159E+00 -0.1849829E-01  0.4261443E+09  0.8110964E+07 -0.7736683E-04 -0.7302766E-05
  0.3271260E+01  0.2913952E+08  0.1463014E+06 -0.1312828E-01  0.6520207E-03 -0.6531982E+00 -0.8712466E+01  0.6559448E+00 -0.2755333E-01  0.4270342E+09  0.1104963E+08  0.6890297E-04 -0.1028532E-04
  0.3318307E+01  0.2914306E+08  0.1195334E+06  0.8491516E-02  0.9493753E-05  0.2236511E+01  0.4605750E+01 -0.9582520E-01  0.4050668E-01  0.4272295E+09  0.9153737E+07  0.4631281E-04 -0.6428062E-06
  0.3365355E+01  0.2914905E+08  0.1116709E+06  0.1540947E-01 -0.2599656E-03  0.2806091E+01 -0.3246917E+02  0.4949951E+00  0.3286479E-02  0.4276127E+09  0.8577820E+07 -0.2204627E-03 -0.3956653E-04
  0.3412401E+01  0.2915503E+08  0.1059719E+06  0.1216888E-02  0.1627160E-03 -0.2516357E+01 -0.3493314E+02  0.8007202E+00  0.4228012E-01  0.4279932E+09  0.8144014E+07  0.1640022E-03 -0.2796681E-04
  0.3459449E+01  0.2916079E+08  0.1007947E+06  0.4054070E-02  0.2144472E-03 -0.1343811E+01 -0.3426784E+01 -0.3031006E+00 -0.4455223E-01  0.4283660E+09  0.7763529E+07  0.6337166E-03 -0.4175534E-05
  0.3506496E+01  0.2916646E+08  0.9595398E+05  0.4065514E-02  0.9028950E-04  0.1481934E+00 -0.6604928E+01  0.5576172E+00  0.2718048E-01  0.4287251E+09  0.7405278E+07 -0.9510964E-03  0.2299038E-05
  0.3553543E+01  0.2917186E+08  0.9147249E+05  0.2065754E-01 -0.4744492E-03 -0.6176514E+01 -0.3665485E+01  0.2801514E+00 -0.2407491E-01  0.4290719E+09  0.7060042E+07 -0.8536875E-04  0.4130250E-05
  0.3600591E+01  0.2917714E+08  0.8710458E+05 -0.6790161E-03  0.4807307E-03  0.1592041E+01  0.7078416E+02  0.4415283E+00  0.2461341E-01  0.4294092E+09  0.6729833E+07 -0.9892881E-04  0.1453996E-04
  0.3647638E+01  0.2918219E+08  0.8291990E+05  0.1076031E-01  0.3130793E-03 -0.4804871E+01  0.2627892E+02  0.4854126E+00  0.2716137E-01  0.4297340E+09  0.6414882E+07  0.6332695E-03 -0.6848609E-05
  0.3694685E+01  0.2918714E+08  0.7887875E+05  0.6904602E-02  0.6307112E-03 -0.5277710E+00  0.4453069E+01 -0.6376953E+00  0.1804045E-02  0.4300471E+09  0.6108670E+07 -0.5278587E-03 -0.7267273E-05
  0.3741732E+01  0.2919182E+08  0.7485331E+05 -0.1788378E-01  0.2033985E-03  0.1279163E+02  0.7685027E+01  0.5388794E+00  0.1872693E-01  0.4303506E+09  0.5806813E+07 -0.4082322E-03  0.1115123E-05
  0.3788780E+01  0.2919642E+08  0.7049230E+05  0.2193785E-01  0.7587850E-04 -0.8598999E+01  0.1033291E+02 -0.1812134E+00 -0.2566861E-01  0.4306371E+09  0.5488478E+07  0.5787611E-04  0.4573034E-05
  0.3835827E+01  0.2920055E+08  0.6503878E+05 -0.3817558E-02  0.2780178E-03  0.2543945E+01  0.1643633E+01 -0.1014404E+00  0.7491849E-02  0.4309000E+09  0.5076182E+07  0.3874600E-03  0.2514964E-05
  0.3882874E+01  0.2920405E+08  0.5227998E+05  0.2017498E-02 -0.3184578E-03 -0.7499268E+01 -0.8785778E+02 -0.4659424E+00 -0.6161788E-02  0.4311092E+09  0.4153018E+07  0.3792048E-03 -0.4281590E-05
  0.3929921E+01  0.2922127E+08  0.1086199E+06  0.3283024E-02  0.2998292E-03 -0.8500488E+01 -0.6228178E+01 -0.2276611E-01  0.8635080E-02  0.4323536E+09  0.8071944E+07  0.9132177E-04  0.5270435E-06
  0.3976969E+01  0.2921522E+08  0.7566355E+05  0.5162716E-02 -0.9102558E-04 -0.4009399E+00 -0.3956095E+00 -0.1779785E+00 -0.1723418E-01  0.4318701E+09  0.5779416E+07 -0.1989752E-03  0.1185229E-05
  0.4024016E+01  0.2921834E+08  0.6870529E+05 -0.1755571E-01  0.5948281E-03  0.1286316E+01 -0.6615489E+01  0.4109192E+00  0.1056108E-01  0.4320537E+09  0.5278914E+07  0.1395270E-03  0.4317301E-05
  0.4071063E+01  0.2922159E+08  0.6445510E+05 -0.2479076E-02 -0.5435455E-04 -0.2403625E+01 -0.1911097E+02 -0.6508484E+00 -0.2733258E-02  0.4322622E+09  0.4966028E+07  0.3289878E-03  0.2305216E-05
  0.4118111E+01  0.2922493E+08  0.6110035E+05  0.9700298E-02 -0.3279326E-03  0.3149414E-01 -0.3427529E+02 -0.4858398E-01 -0.9048583E-02  0.4324748E+09  0.4710680E+07 -0.1417920E-03  0.9020600E-05
  0.4165157E+01  0.2922824E+08  0.5788516E+05 -0.2274990E-02 -0.2125129E-03 -0.7055664E-01  0.3686051E+02 -0.3262329E-01  0.1525326E-02  0.4326852E+09  0.4478466E+07 -0.2758205E-04  0.1042703E-04
  0.4212204E+01  0.2923144E+08  0.5488758E+05 -0.2564287E-01  0.5583729E-03  0.1022583E+01  0.4027861E+02 -0.5114746E-01  0.3522168E-01  0.4328905E+09  0.4250913E+07 -0.3614202E-03 -0.1261611E-04
  0.4259252E+01  0.2923454E+08  0.5186835E+05 -0.1606989E-01 -0.1218582E-04  0.1035272E+02  0.9830382E+00 -0.4049683E-01  0.2339677E-01  0.4330912E+09  0.4023551E+07 -0.1437068E-03  0.6981458E-05
  0.4306299E+01  0.2923758E+08  0.4886405E+05 -0.7061958E-02  0.2238210E-03 -0.4385681E+01 -0.1410479E+02  0.1762390E+00 -0.9724919E-02  0.4332859E+09  0.3788373E+07  0.2932250E-03 -0.1219208E-05
  0.4353347E+01  0.2924034E+08  0.4530834E+05 -0.2132416E-02 -0.4504567E-03 -0.1116150E+01 -0.3475578E+01 -0.4037476E-01  0.1806809E-01  0.4334697E+09  0.3535012E+07 -0.3464669E-03 -0.8043870E-05
  0.4400393E+01  0.2924299E+08  0.4042641E+05 -0.1966953E-02 -0.8372102E-03 -0.5552979E+00  0.2819837E+02  0.4385986E+00 -0.3491523E-02  0.4336391E+09  0.3182568E+07  0.5153790E-03 -0.3344120E-05
  0.4447441E+01  0.2924522E+08  0.2794185E+05 -0.7511139E-02 -0.2141912E-03  0.7282410E+01 -0.2004693E+02 -0.9042358E-01 -0.6582668E-01  0.4337784E+09  0.2285828E+07  0.5286187E-04 -0.8814180E-05
  0.4494488E+01  0.2926222E+08  0.7296533E+05  0.1748204E-02  0.2143139E-03  0.1370862E+02 -0.3183162E+02  0.1727905E+00  0.9189780E-02  0.4350140E+09  0.5336776E+07  0.7838011E-04 -0.7869338E-05
  0.4541535E+01  0.2925322E+08  0.5494737E+05 -0.1692867E-01 -0.9636799E-03  0.9538330E+01  0.3493053E+02  0.5491943E+00  0.1704739E-01  0.4343451E+09  0.4175159E+07  0.2167597E-03  0.3316033E-05
  0.4588583E+01  0.2925470E+08  0.4874089E+05 -0.1735950E-01  0.1378444E-03  0.1439514E+02 -0.3123809E+02  0.2225342E+00  0.2324538E-01  0.4344380E+09  0.3724436E+07  0.2840385E-03 -0.2314501E-04
  0.4635630E+01  0.2925658E+08  0.4511129E+05  0.2097964E-01 -0.4420881E-04  0.3224854E+01 -0.3469641E+02 -0.3713989E+00 -0.1598591E-01  0.4345651E+09  0.3463231E+07 -0.1938939E-03 -0.3350199E-05
  0.4682677E+01  0.2925859E+08  0.4207782E+05  0.1364613E-01 -0.7368485E-04 -0.9526978E+00  0.6211856E+01 -0.1931458E+00 -0.1286136E-01  0.4347007E+09  0.3255036E+07  0.2974868E-03  0.2128208E-05
  0.4729724E+01  0.2926071E+08  0.3944427E+05  0.1231813E-01  0.2931901E-04  0.2967529E+00 -0.7602234E+01 -0.3007507E+00  0.1140284E-01  0.4348372E+09  0.3056613E+07  0.4427284E-03  0.2114352E-05
  0.4776772E+01  0.2926267E+08  0.3677198E+05  0.2139688E-01 -0.7972098E-04 -0.8406494E+01 -0.2324640E+02 -0.2223511E+00 -0.2915510E-03  0.4349713E+09  0.2856429E+07 -0.1227185E-03 -0.5338458E-05
  0.4823819E+01  0.2926460E+08  0.3385271E+05 -0.1558757E-01  0.6900529E-03 -0.6411194E+01 -0.2515226E+02  0.3200684E+00 -0.3974705E-02  0.4351027E+09  0.2645174E+07  0.1419783E-03 -0.6145783E-05
  0.4870866E+01  0.2926640E+08  0.3035989E+05 -0.2402544E-02  0.2322610E-04  0.2825806E+01 -0.2524657E+02 -0.1345825E+00 -0.1337823E-02  0.4352256E+09  0.2388686E+07 -0.1323000E-03 -0.1088723E-06
  0.4917913E+01  0.2926812E+08  0.2439697E+05 -0.1488256E-01  0.2180891E-03  0.3615723E+00  0.2127620E+02  0.1369324E+00 -0.4172302E-01  0.4353386E+09  0.1954700E+07 -0.2110675E-03  0.1172522E-05
  0.4964961E+01  0.2927045E+08  0.5959146E+03 -0.1839733E-01 -0.1787446E-03 -0.5466492E+01 -0.3993273E+01  0.2637634E+00 -0.5757706E-02  0.4354896E+09  0.2216424E+06 -0.7020682E-04 -0.1627641E-05
  0.5012008E+01  0.2927695E+08  0.5237027E+05 -0.1087308E-02 -0.9559646E-05  0.7254211E+01  0.1846263E+02 -0.3647842E+00  0.8718397E-02  0.4359796E+09  0.3902863E+07 -0.6988086E-04 -0.3024732E-05
  0.5059055E+01  0.2927534E+08  0.4079655E+05  0.1167941E-01  0.5210667E-03  0.2171448E+01 -0.1447551E+02 -0.6949463E+00 -0.4168533E-02  0.4358514E+09  0.3105230E+07  0.7160455E-03  0.3392361E-06
  0.5106102E+01  0.2927647E+08  0.3608893E+05 -0.1272678E-02  0.1655650E-03 -0.5670410E+01 -0.5772701E+01  0.5815582E+00  0.1371268E-01  0.4359185E+09  0.2766081E+07 -0.1625642E-03 -0.7342382E-05
  0.5153150E+01  0.2927768E+08  0.3300380E+05  0.7205486E-02  0.2211492E-04 -0.8988464E+01 -0.2368868E+02  0.4269104E+00 -0.1431081E-01  0.4360048E+09  0.2541352E+07  0.2313070E-03 -0.6373397E-05
  0.5200197E+01  0.2927902E+08  0.3028103E+05  0.6722689E-02 -0.6199117E-04 -0.4233643E+01  0.1210876E+02  0.1006165E+00  0.1126752E-01  0.4360974E+09  0.2344218E+07  0.3734641E-03 -0.2324669E-05
  0.5247244E+01  0.2928040E+08  0.2761572E+05 -0.1263142E-01 -0.1626353E-03  0.1565308E+01 -0.6177292E+01  0.2670746E+00  0.2321931E-01  0.4361918E+09  0.2149283E+07 -0.1408681E-03  0.1954751E-06
  0.5294291E+01  0.2928183E+08  0.2466270E+05  0.2259469E-01 -0.4417901E-04 -0.7662964E+00 -0.1135068E+02 -0.2196960E+00  0.1454121E-01  0.4362842E+09  0.1931748E+07 -0.4026927E-03  0.5127921E-06
  0.5341339E+01  0.2928301E+08  0.2067707E+05 -0.1261950E-02 -0.1248005E-03 -0.6953979E+01  0.2333333E+01 -0.3830261E+00  0.1581146E-01  0.4363703E+09  0.1641434E+07 -0.2396218E-03 -0.2308172E-05
  0.5388386E+01  0.2928430E+08  0.1242155E+05 -0.1145625E-01 -0.1503089E-03  0.9865723E+00 -0.8677307E+01  0.1039886E+00  0.6577619E-03  0.4364558E+09  0.1035692E+07  0.1342148E-03 -0.4616859E-06
  0.5435433E+01  0.2929249E+08 -0.1791571E+05 -0.1482964E-01 -0.3946041E-03  0.2634216E+01  0.2907862E+02 -0.1218719E+00 -0.8843279E-02  0.4370346E+09 -0.1260653E+07 -0.8462742E-04 -0.3591590E-05
  0.5482480E+01  0.2929005E+08  0.3918458E+05  0.2598172E-01  0.4679508E-03  0.2894958E+01  0.8447963E+01  0.1190376E+00  0.1171184E-02  0.4368774E+09  0.2947081E+07  0.2265722E-03 -0.1756449E-05
  0.5529528E+01  0.2928969E+08  0.3181915E+05 -0.8263350E-02  0.4561464E-03 -0.5396851E+01  0.1249909E+02 -0.1575775E+00  0.2024974E-02  0.4368427E+09  0.2426449E+07 -0.6966535E-03  0.2554288E-05
  0.5576575E+01  0.2929036E+08  0.2794477E+05  0.1205564E-01  0.2220364E-03  0.2035706E+01  0.2062833E+01  0.6722946E+00 -0.1786927E-01  0.4368891E+09  0.2146252E+07 -0.5767904E-03 -0.1138435E-04
  0.5623622E+01  0.2929131E+08  0.2495596E+05  0.5246401E-02 -0.1501669E-03  0.7186890E+00  0.1755743E+02 -0.1328049E+00  0.1561736E-01  0.4369521E+09  0.1929736E+07 -0.6837416E-03  0.2597753E-05
  0.5670670E+01  0.2929235E+08  0.2212638E+05  0.1525307E-01 -0.1771111E-03 -0.6479492E+00 -0.4518023E+01  0.4356308E+00 -0.8998865E-02  0.4370194E+09  0.1721686E+07 -0.9606592E-04  0.5724845E-05
  0.5717716E+01  0.2929326E+08  0.1895535E+05  0.2262676E-01  0.2331089E-03  0.1039368E+01  0.1287387E+02 -0.2429657E+00  0.3926044E-02  0.4370857E+09  0.1494113E+07  0.5555712E-04 -0.1959614E-05
  0.5764764E+01  0.2929426E+08  0.1474272E+05  0.1055872E-01 -0.2199083E-04 -0.4290405E+01 -0.1134070E+02 -0.1617432E-02  0.1495376E-02  0.4371512E+09  0.1179388E+07 -0.3104601E-03 -0.2018689E-05
  0.5811811E+01  0.2929536E+08  0.5649994E+04  0.6988645E-02 -0.1621203E-03  0.3412598E+01 -0.8845919E+01 -0.6532135E+00  0.4434060E-03  0.4372271E+09  0.5081238E+06 -0.1256764E-03 -0.2165068E-05
  0.5858858E+01  0.2930364E+08 -0.8777878E+04 -0.5610585E-02  0.3675490E-04 -0.2318481E+01  0.2015030E+02  0.5863190E+00  0.8129729E-03  0.4378288E+09 -0.6336756E+06  0.1664702E-03 -0.1257720E-05
  0.5905906E+01  0.2929998E+08  0.3295095E+05 -0.2276405E-01 -0.3661002E-04  0.4414551E+01 -0.7351700E+01  0.3028998E+00 -0.2433158E-02  0.4375646E+09  0.2482650E+07  0.3549739E-03  0.3256180E-05
  0.5952953E+01  0.2929944E+08  0.2660578E+05 -0.8912534E-02  0.6557141E-03  0.7426636E+01 -0.1631796E+02  0.1664886E+00 -0.6358440E-02  0.4375251E+09  0.2032278E+07 -0.1754332E-04  0.4058295E-05
  0.6000000E+01  0.2929994E+08  0.2271139E+05  0.4304051E-03  0.5049706E-03 -0.4050049E+01  0.1357831E+02  0.1535683E+00 -0.2719116E-01  0.4375555E+09  0.1753222E+07  0.1659719E-03  0.1363456E-05
Zone t="Motion of body    1 in DoF   2",I=   128,F=POINT
  0.2500000E-01  0.2456665E-02  0.2609113E-11  0.3149990E+08  0.3643852E-02  0.3432007E+00  0.3413447E-10 -0.5632472E+09 -0.7483257E-01  0.8398438E-01  0.6875780E-09 -0.5638478E+06 -0.6522454E-04
  0.7204724E-01  0.1972198E-01 -0.8072875E-09  0.3152435E+08  0.1028021E+02 -0.1138306E-01  0.5493749E-08 -0.5643123E+09 -0.1791539E+03  0.8437500E+00  0.2631631E-06 -0.5642861E+06 -0.1840160E+00
  0.1190945E+00 -0.3120422E-02  0.3693482E-07  0.3157777E+08  0.3090569E+03 -0.4287338E-01  0.2753530E-05 -0.5665660E+09 -0.5699708E+04  0.3867188E+00  0.1732055E-05 -0.5652422E+06 -0.5532128E+01
  0.1661417E+00  0.1029968E-02  0.1300983E-05  0.3166772E+08  0.2715766E+04  0.1120567E+00 -0.3732744E-05 -0.5702833E+09 -0.5404675E+05  0.5390625E+00 -0.1315491E-03 -0.5668529E+06 -0.4861225E+02
  0.2131890E+00 -0.3028870E-02 -0.3087814E-05  0.3179751E+08  0.1270541E+05  0.4804993E-01 -0.3397866E-04 -0.5757992E+09 -0.2774093E+06  0.1380371E+01 -0.6190877E-03 -0.5691768E+06 -0.2274270E+03
  0.2602362E+00  0.1313019E-01 -0.5428951E-05  0.3195727E+08  0.4027308E+05  0.3258667E+00 -0.3829970E-03 -0.5831887E+09 -0.9755811E+06  0.2578125E+00 -0.4447396E-03 -0.5720359E+06 -0.7208873E+03
  0.3072835E+00 -0.1736450E-01  0.3626473E-04  0.3212519E+08  0.9781868E+05  0.3960419E-01  0.1352198E-02 -0.5921688E+09 -0.2644632E+07  0.5205078E+00 -0.3296208E-02 -0.5750409E+06 -0.1750959E+04
  0.3543307E+00  0.2252197E-01 -0.7214509E-04  0.3227198E+08  0.1959461E+06 -0.5961761E+00 -0.3765779E-02 -0.6019705E+09 -0.5919537E+07 -0.1060547E+01  0.4606472E-02 -0.5776669E+06 -0.3507432E+04
  0.4013779E+00  0.7865906E-02  0.3789560E-04  0.3237106E+08  0.3399383E+06  0.3123245E+00 -0.9952380E-04 -0.6114427E+09 -0.1144252E+08 -0.3740234E+00 -0.8990827E-02 -0.5794434E+06 -0.6084895E+04
  0.4484252E+00 -0.2267456E-01 -0.4007095E-03  0.3240667E+08  0.5289982E+06  0.4873657E-01  0.7896159E-02 -0.6193238E+09 -0.1971950E+08  0.7309570E+00 -0.1037312E-01 -0.5800799E+06 -0.9469101E+04
  0.4954725E+00 -0.1691437E-01  0.6723951E-03  0.3237344E+08  0.7580107E+06  0.3735733E+00 -0.2029093E-01 -0.6244754E+09 -0.3102833E+08 -0.8349609E-01 -0.7614744E-01 -0.5794844E+06 -0.1356846E+05
  0.5425196E+00 -0.3028870E-02 -0.3745882E-03  0.3227345E+08  0.1019966E+07  0.4165421E+00  0.1128939E-01 -0.6260157E+09 -0.4539210E+08  0.2783203E+00 -0.5039764E-01 -0.5776953E+06 -0.1825740E+05
  0.5895669E+00 -0.6156921E-02 -0.1527084E-02  0.3211109E+08  0.1307455E+07 -0.6814880E+00 -0.1637286E-01 -0.6233476E+09 -0.6259615E+08 -0.1341797E+01  0.4951441E-01 -0.5747878E+06 -0.2340341E+05
  0.6366141E+00 -0.1948547E-01  0.3703447E-03  0.3189041E+08  0.1612580E+07 -0.1065292E+00  0.9956809E-02 -0.6161005E+09 -0.8220359E+08  0.2441406E+00  0.1771826E-01 -0.5708396E+06 -0.2886528E+05
  0.6836614E+00  0.1354218E-01 -0.1040577E-02  0.3161425E+08  0.1925994E+07  0.4166412E-01  0.7682141E-01 -0.6040860E+09 -0.1035397E+09  0.2255859E+00  0.1270181E+00 -0.5658988E+06 -0.3447527E+05
  0.7307087E+00 -0.1106262E-01 -0.1864792E-02  0.3128647E+08  0.2235280E+07  0.2883530E+00 -0.1361939E-01 -0.5873573E+09 -0.1256659E+09  0.7832031E+00 -0.1398622E+00 -0.5600271E+06 -0.4001148E+05
  0.7777559E+00 -0.2441406E-02 -0.2311218E-02  0.3091273E+08  0.2524747E+07 -0.5596161E+00 -0.4588316E-01 -0.5662564E+09 -0.1473791E+09  0.2480469E+00 -0.5734430E-01 -0.5533393E+06 -0.4519311E+05
  0.8248031E+00 -0.1085663E-01  0.2265389E-02  0.3050405E+08  0.2775571E+07  0.3100586E-01 -0.1730506E+00 -0.5415132E+09 -0.1672464E+09 -0.1086914E+01 -0.3411173E+00 -0.5460230E+06 -0.4968282E+05
  0.8718503E+00 -0.4730225E-02  0.9046298E-03  0.3007741E+08  0.2969068E+07  0.6964111E-01 -0.6080310E-01 -0.5143080E+09 -0.1837917E+09  0.1376953E+00  0.3141726E+00 -0.5383859E+06 -0.5314635E+05
  0.9188976E+00 -0.4440308E-02  0.2131232E-02  0.2965440E+08  0.3089562E+07 -0.1657982E+00  0.1822905E+00 -0.4861951E+09 -0.1957224E+09 -0.3222656E+00 -0.4711145E-01 -0.5308145E+06 -0.5530313E+05
  0.9659449E+00  0.1023865E-01 -0.1378110E-02  0.2925803E+08  0.3129104E+07 -0.9124756E-02 -0.4151466E+00 -0.4588898E+09 -0.2022254E+09  0.5644531E+00  0.3820388E-01 -0.5237199E+06 -0.5601102E+05
  0.1012992E+01  0.7591248E-02 -0.1762102E-02  0.2890936E+08  0.3088778E+07  0.1022987E+00 -0.2318594E+00 -0.4340090E+09 -0.2031308E+09 -0.1928711E+00  0.1563015E+00 -0.5174781E+06 -0.5528911E+05
  0.1060039E+01 -0.7251740E-02  0.9219702E-03  0.2862192E+08  0.2978904E+07 -0.1695175E+00  0.3566165E-01 -0.4127366E+09 -0.1989348E+09  0.4614258E+00 -0.2101445E+00 -0.5123330E+06 -0.5332227E+05