VARIABLES="w (rad/s)"
"abs(F   1   1)" "angle(F   1   1)"
"abs(F   1   2)" "angle(F   1   2)"
"abs(F   1   3)" "angle(F   1   3)"
"abs(F   1   4)" "angle(F   1   4)"
"abs(F   1   5)" "angle(F   1   5)"
"abs(F   1   6)" "angle(F   1   6)"
"abs(F   2   7)" "angle(F   2   7)"
"abs(F   2   8)" "angle(F   2   8)"
"abs(F   2   9)" "angle(F   2   9)"
"abs(F   2  10)" "angle(F   2  10)"
"abs(F   2  11)" "angle(F   2  11)"
"abs(F   2  12)" "angle(F   2  12)"
Zone t="FKforce - beta =   0.000",I=   500,F=POINT
  0.4000000E-01  0.1128185E+05 -0.1570761E+01  0.7050198E-01 -0.3141539E+01  0.3175690E+06 -0.1715490E-09  0.5166626E-01 -0.1649716E-03  0.7476438E+04  0.1570159E+01  0.5256436E-02  0.1202048E+00  0.1847245E+04 -0.1570765E+01  0.5493165E-03  0.4340278E-03  0.5368774E+01 -0.3141591E+01  0.1698303E-01 -0.1403863E-04  0.1385438E+04 -0.1570759E+01  0.5076932E-01 -0.1145584E-01
  0.8000000E-01  0.2254724E+05 -0.1570569E+01  0.1320955E-01 -0.3591551E-04  0.3167409E+06  0.5957813E-09  0.4076385E+00  0.3141551E+01  0.1489747E+05  0.1571066E+01  0.2887250E+00  0.3272069E-01  0.3687964E+04 -0.1570733E+01  0.6103702E-04 -0.3133780E+01  0.2148169E+02 -0.3141593E+01  0.1426544E+00  0.5013905E-04  0.2765964E+04 -0.1570740E+01  0.1560854E-01  0.2743674E+01
  0.1200000E+00  0.3377961E+05 -0.1570921E+01  0.3222046E-01  0.3141110E+01  0.3153637E+06  0.1752435E-08  0.4583742E-01 -0.3140777E+01  0.2220811E+05  0.1570942E+01  0.6821039E-01 -0.6756064E+00  0.5515613E+04 -0.1570814E+01  0.4272461E-02 -0.2232143E-03  0.4801727E+02 -0.3141593E+01  0.1190186E-02 -0.1001603E-03  0.4136665E+04 -0.1570849E+01  0.3749551E-01 -0.3075867E+01
  0.1600000E+00  0.4496212E+05 -0.1570721E+01  0.4481213E-03  0.2948617E+01  0.3134386E+06  0.3042619E-09  0.2642215E+00 -0.3140109E+01  0.2935224E+05  0.1570706E+01  0.3583862E-01 -0.7019967E+00  0.7323629E+04 -0.1570816E+01  0.2319336E-02  0.3141181E+01  0.8500348E+02 -0.3141593E+01  0.3182984E-01  0.7190795E-03  0.5492594E+04 -0.1570814E+01  0.1532973E-01 -0.2681103E+01
  0.2000000E+00  0.5607890E+05 -0.1570756E+01  0.7991844E-01  0.9164980E-03  0.3109700E+06  0.1222875E-08  0.1158602E+00 -0.1996079E-02  0.3627399E+05  0.1570812E+01  0.1543173E+00  0.1868164E+00  0.9105427E+04 -0.1570777E+01  0.3051773E-03  0.3138468E+01  0.1326854E+03  0.3141593E+01  0.5223084E-01 -0.3141191E+01  0.6828827E+04 -0.1570808E+01  0.6863255E-02 -0.1351155E+01
  0.2400000E+00  0.6711198E+05 -0.1570791E+01  0.1290211E-01 -0.3134980E+01  0.3079611E+06  0.1277404E-08  0.3216665E-01 -0.8353399E-02  0.4291648E+05  0.1570903E+01  0.2216550E+00 -0.1728116E+01  0.1085435E+05 -0.1570816E+01  0.2441425E-03 -0.3906230E-02  0.1910392E+03  0.3141593E+01  0.1569824E+00  0.4556279E-05  0.8140382E+04 -0.1570809E+01  0.1037560E-01  0.7092494E+00
  0.2800000E+00  0.7804613E+05 -0.1570819E+01  0.4322090E-01 -0.3140931E+01  0.3044183E+06 -0.2075464E-08  0.2353669E+00  0.3140841E+01  0.4922465E+05  0.1570868E+01  0.4274947E+00  0.1960235E+00  0.1256384E+05 -0.1570795E+01  0.1831056E-02  0.1041666E-02  0.2588362E+03  0.3141592E+01  0.2125550E-01 -0.6281406E-03  0.9422349E+04 -0.1570788E+01  0.1467607E-01  0.1757196E+00
  0.3200000E+00  0.8886537E+05 -0.1570825E+01  0.7329654E-01 -0.8306215E-04  0.3003479E+06 -0.4089698E-08  0.2330627E+00  0.1207117E-03  0.5513830E+05  0.1570722E+01  0.1593846E+00 -0.1578582E-01  0.1422725E+05 -0.1570792E+01  0.1907349E-05 -0.1570796E+01  0.3364697E+03 -0.3141593E+01  0.6518555E-01  0.3141128E+01  0.1066956E+05 -0.1570809E+01  0.1631560E-01  0.3076578E+01
  0.3600000E+00  0.9955066E+05 -0.1570803E+01  0.6264836E-01 -0.4842570E-04  0.2957588E+06  0.1981456E-08  0.3910675E+00  0.3141117E+01  0.6060089E+05  0.1570761E+01  0.1137314E+00 -0.2553122E+01  0.1583778E+05 -0.1570804E+01  0.3540040E-02 -0.3141054E+01  0.4236595E+03 -0.3141593E+01  0.8935547E-01  0.1707650E-03  0.1187705E+05 -0.1570795E+01  0.5745284E-01 -0.2963986E+01
  0.3999999E+00  0.1100863E+06 -0.1570795E+01  0.1357387E-01 -0.3132872E+01  0.2906601E+06 -0.1059783E-08  0.1791506E-01 -0.3129834E+01  0.6555210E+05  0.1570772E+01  0.9352060E-01 -0.8102900E+00  0.1738861E+05 -0.1570793E+01  0.4882814E-02  0.7812498E-03  0.5199458E+03  0.3141593E+01  0.3575134E-01 -0.3141486E+01  0.1303973E+05 -0.1570796E+01  0.3682296E-01 -0.2452802E+00
  0.4400000E+00  0.1204566E+06 -0.1570822E+01  0.7528324E-01  0.3315568E-03  0.2850628E+06  0.1806564E-08  0.5652372E-01  0.1352341E-01  0.6993240E+05  0.1570803E+01  0.9922186E-01 -0.2089067E+01  0.1887317E+05 -0.1570800E+01  0.2441407E-02 -0.7812498E-03  0.6244667E+03  0.3141593E+01  0.1945496E-01  0.3140808E+01  0.1415261E+05 -0.1570797E+01  0.7527397E-02  0.2975173E+01
  0.4800000E+00  0.1306446E+06 -0.1570822E+01  0.2518672E-01 -0.4090866E-03  0.2789791E+06 -0.4582423E-08  0.1973268E+00  0.1156288E-02  0.7368023E+05  0.1570780E+01  0.1670248E+00  0.2666454E+01  0.2028450E+05 -0.1570801E+01  0.4272503E-03 -0.3137128E+01  0.7375621E+03 -0.3141593E+01  0.6387329E-01 -0.6718824E-04  0.1521042E+05 -0.1570807E+01  0.4746227E-01 -0.3061435E+01
  0.5200000E+00  0.1406343E+06 -0.1570774E+01  0.3223555E-01 -0.2908267E-02  0.2724243E+06 -0.9427371E-08  0.2335205E+00  0.5645991E-03  0.7673369E+05  0.1570800E+01  0.3691677E+00 -0.1446379E+01  0.2161575E+05 -0.1570794E+01  0.1831055E-02  0.3141593E+01  0.8581655E+03 -0.3141593E+01  0.2005005E-01 -0.3141569E+01  0.1620808E+05 -0.1570787E+01  0.3884540E-02  0.1158555E+01
  0.5600000E+00  0.1504072E+06 -0.1570838E+01  0.6833516E-01  0.3140952E+01  0.2654132E+06 -0.2134342E-08  0.5055359E-01  0.3134646E+01  0.7903259E+05  0.1570776E+01  0.4336823E+00  0.1608056E+01  0.2286024E+05 -0.1570789E+01  0.2868652E-02  0.3141593E+01  0.9849805E+03 -0.3141593E+01  0.5497742E-01  0.3141593E+01  0.1714047E+05 -0.1570797E+01  0.4423054E-01 -0.2181381E+00
  0.6000000E+00  0.1599497E+06 -0.1570812E+01  0.1032779E-01 -0.3140450E+01  0.2579645E+06  0.9279271E-08  0.9718411E-01 -0.3137313E+01  0.8051059E+05  0.1570818E+01  0.5564950E+00  0.2013197E+01  0.2401109E+05 -0.1570785E+01  0.3234866E-02  0.1179245E-02  0.1118721E+04  0.3141593E+01  0.6224068E-01 -0.3140007E+01  0.1800257E+05 -0.1570796E+01  0.2445461E-01  0.2113385E+00
  0.6400000E+00  0.1692443E+06 -0.1570780E+01  0.1436947E-01 -0.3137929E+01  0.2501004E+06  0.1264064E-07  0.2656174E+00 -0.3140998E+01  0.8110498E+05  0.1570850E+01  0.1611730E+00 -0.1926342E+01  0.2506166E+05 -0.1570796E+01  0.4272461E-03  0.3141593E+01  0.1258023E+04  0.3141593E+01  0.6735998E-01  0.1359156E-02  0.1878921E+05 -0.1570801E+01  0.1331981E-01  0.2819367E+01
  0.6800000E+00  0.1782761E+06 -0.1570799E+01  0.1288652E-01 -0.1156816E-01  0.2418430E+06  0.9081560E-08  0.1382603E+00  0.2439192E-02  0.8075124E+05  0.1570737E+01  0.1245906E+00 -0.1179893E+01  0.2600536E+05 -0.1570794E+01  0.3784180E-02  0.0000000E+00  0.1401842E+04  0.3141593E+01  0.1209488E+00 -0.3141064E+01  0.1949565E+05 -0.1570802E+01  0.3221795E-01  0.2668996E+01
  0.7200000E+00  0.1870303E+06 -0.1570801E+01  0.2280586E-02 -0.3093505E+01  0.2332182E+06 -0.7785825E-08  0.6326380E-01  0.3136377E+01  0.7938734E+05  0.1570771E+01  0.6541308E+00  0.1721518E+01  0.2683589E+05 -0.1570790E+01  0.7324219E-03  0.0000000E+00  0.1549075E+04  0.3141593E+01  0.2701279E-02 -0.3122880E+01  0.2011708E+05 -0.1570797E+01  0.1835728E-01 -0.2765553E+01
  0.7599999E+00  0.1954932E+06 -0.1570798E+01  0.2687839E-01 -0.3141038E+01  0.2242562E+06 -0.6948767E-08  0.6756752E-01 -0.3134714E+01  0.7694687E+05  0.1570740E+01  0.1807532E+00 -0.1582879E+01  0.2754716E+05 -0.1570792E+01  0.2441406E-03  0.3141593E+01  0.1699404E+04 -0.3141593E+01  0.3716739E-02  0.2566172E-01  0.2064875E+05 -0.1570794E+01  0.2252802E-01 -0.1611786E+01
  0.8000000E+00  0.2036476E+06 -0.1570786E+01  0.2399715E-01  0.3139400E+01  0.2149894E+06 -0.1395538E-07  0.6777922E-02 -0.3111742E+01  0.7336966E+05  0.1570813E+01  0.1451305E+00 -0.1496672E+01  0.2813330E+05 -0.1570796E+01  0.1037605E-02 -0.3137916E+01  0.1850265E+04  0.3141593E+01  0.4692078E-01  0.3141115E+01  0.2108649E+05 -0.1570805E+01  0.5329968E-02  0.2122217E+01
  0.8400000E+00  0.2114831E+06 -0.1570812E+01  0.1017258E-01  0.3123154E+01  0.2054530E+06  0.7422259E-08  0.1223932E+00 -0.3135285E+01  0.6859838E+05  0.1570810E+01  0.2591231E+00  0.2227288E+01  0.2858917E+05 -0.1570797E+01  0.1831055E-02  0.3141593E+01  0.2001216E+04 -0.3141593E+01  0.6279155E-02 -0.3134378E+01  0.2142629E+05 -0.1570791E+01  0.4648023E-02  0.6344271E-01
  0.8800000E+00  0.2189875E+06 -0.1570803E+01  0.2297415E-02 -0.3048323E+01  0.1956867E+06  0.8903839E-08  0.1018624E-01  0.7867835E-01  0.6257392E+05  0.1570828E+01  0.5459478E+00 -0.7755516E+00  0.2891001E+05 -0.1570791E+01  0.1226056E-03 -0.9347678E-01  0.2151065E+04  0.3141593E+01  0.8651733E-02  0.0000000E+00  0.2166495E+05 -0.1570797E+01  0.1271748E-02  0.1316087E+01
  0.9200000E+00  0.2261508E+06 -0.1570808E+01  0.1362294E-01 -0.7993714E-02  0.1857354E+06  0.4615992E-08  0.1151582E+00  0.1391280E-02  0.5524610E+05  0.1570843E+01  0.6032238E-01 -0.1811947E+01  0.2909218E+05 -0.1570794E+01  0.2441409E-02  0.3140030E+01  0.2297409E+04 -0.3141593E+01  0.7028200E-01  0.6106165E-03  0.2179921E+05 -0.1570789E+01  0.1525048E-01  0.1186179E+01
  0.9600000E+00  0.2329636E+06 -0.1570787E+01  0.2159837E-01 -0.3125782E+01  0.1756445E+06  0.1673394E-07  0.3558277E+00  0.1551142E-02  0.4656780E+05  0.1570866E+01  0.2305087E+00  0.2173881E+01  0.2913295E+05 -0.1570800E+01  0.6103516E-04  0.0000000E+00  0.2439451E+04  0.3141593E+01  0.2332307E-01 -0.7973502E-03  0.2182710E+05 -0.1570792E+01  0.1597626E-01 -0.1027335E+00
  0.1000000E+01  0.2394227E+06 -0.1570798E+01  0.5077730E-03 -0.2327296E+01  0.1654662E+06  0.1185564E-07  0.5415737E-02 -0.8966347E-01  0.3650224E+05  0.1570815E+01  0.6666083E+00 -0.1512473E+01  0.2903044E+05 -0.1570800E+01  0.2197269E-02 -0.3139857E+01  0.2575063E+04  0.3141593E+01  0.1071171E-01  0.2804480E-02  0.2174755E+05 -0.1570799E+01  0.1174899E-01  0.1200012E+01
  0.1040000E+01  0.2455160E+06 -0.1570798E+01  0.1778954E-02 -0.3013836E+01  0.1552543E+06 -0.2733483E-08  0.1530152E+00 -0.3140506E+01  0.2502322E+05  0.1570817E+01  0.6583444E+00 -0.1484277E+01  0.2878449E+05 -0.1570795E+01  0.2288822E-02 -0.3139926E+01  0.2702346E+04  0.3141593E+01  0.9025794E-02 -0.3134619E+01  0.2156028E+05 -0.1570799E+01  0.2592174E-01  0.3302611E+00
  0.1080000E+01  0.2512497E+06 -0.1570795E+01  0.2141941E-02  0.6642855E-01  0.1450667E+06  0.3352761E-09  0.2020883E+00  0.3138590E+01  0.1211251E+05  0.1570848E+01  0.7252383E-01 -0.2283368E+01  0.2839652E+05 -0.1570801E+01  0.7629395E-03  0.3141593E+01  0.2819626E+04  0.3141593E+01  0.1177992E-01  0.4857475E-02  0.2126632E+05 -0.1570795E+01  0.9144758E-02  0.1699633E+01
  0.1120000E+01  0.2566186E+06 -0.1570797E+01  0.6849443E-03  0.2870543E+01  0.1349631E+06 -0.9624141E-08  0.8072664E-01 -0.3140933E+01  0.2228280E+04 -0.1570899E+01  0.1210793E+01  0.1570973E+01  0.2786973E+05 -0.1570792E+01  0.1647949E-02  0.3141593E+01  0.2925059E+04  0.3141593E+01  0.6240854E-02  0.1680927E-02  0.2086814E+05 -0.1570799E+01  0.1635831E-01  0.2464412E+01
  0.1160000E+01  0.2616245E+06 -0.1570799E+01  0.2061340E-01 -0.3182431E-02  0.1250051E+06  0.2720532E-07  0.6275026E-01  0.3133023E+01  0.1798656E+05 -0.1570797E+01  0.1392930E+00  0.4736731E+00  0.2720934E+05 -0.1570789E+01  0.3082275E-02  0.3141593E+01  0.3016713E+04 -0.3141593E+01  0.3177262E-01 -0.8554446E-03  0.2036996E+05 -0.1570799E+01  0.4566819E-02 -0.1998901E+01
  0.1200000E+01  0.2662748E+06 -0.1570786E+01  0.2268154E-01 -0.3141239E+01  0.1152534E+06  0.2989610E-07  0.1234894E+00  0.3140894E+01  0.3512693E+05 -0.1570811E+01  0.4659265E+00  0.1074040E+01  0.2642293E+05 -0.1570796E+01  0.7019043E-03  0.0000000E+00  0.3092524E+04 -0.3141593E+01  0.3487897E-03 -0.1772856E+00  0.1977683E+05 -0.1570795E+01  0.5143620E-02  0.2560429E+01
  0.1240000E+01  0.2705819E+06 -0.1570796E+01  0.1136364E-01 -0.3124402E+01  0.1057676E+06  0.1607676E-07  0.5072574E-01 -0.8201854E-02  0.5359812E+05 -0.1570807E+01  0.4888046E+00 -0.1400349E+01  0.2551985E+05 -0.1570798E+01  0.2136230E-03  0.0000000E+00  0.3151706E+04 -0.3141593E+01  0.9021760E-02 -0.5285412E-03  0.1909639E+05 -0.1570792E+01  0.1352973E-01  0.2908718E+01
  0.1280000E+01  0.2745490E+06 -0.1570802E+01  0.4072499E-01  0.3141160E+01  0.9660561E+05  0.1242864E-07  0.1137398E+00  0.3606479E-02  0.7332781E+05 -0.1570818E+01  0.4634773E+00 -0.1468668E+01  0.2451168E+05 -0.1570797E+01  0.2136571E-03 -0.1785525E-01  0.3192457E+04  0.3141593E+01  0.1168823E-01 -0.6119451E-03  0.1833740E+05 -0.1570796E+01  0.2544525E-02 -0.2040646E+01
  0.1320000E+01  0.2781956E+06 -0.1570798E+01  0.5701615E-02  0.5346450E-02  0.8781911E+05 -0.9089427E-08  0.4427047E-01  0.6414173E-02  0.9422316E+05 -0.1570804E+01  0.4323177E+00  0.1417523E+01  0.2341221E+05 -0.1570798E+01  0.8239746E-03  0.3141593E+01  0.3213920E+04 -0.3141593E+01  0.1023068E-02 -0.3103831E+01  0.1750982E+05 -0.1570798E+01  0.4705050E-02  0.7227961E+00
  0.1360000E+01  0.2815306E+06 -0.1570791E+01  0.2218792E-01 -0.6611284E-02  0.7945424E+05  0.5881378E-08  0.3363981E-01  0.1037967E-01  0.1161740E+06 -0.1570796E+01  0.3607657E+00  0.1567135E+01  0.2223646E+05 -0.1570795E+01  0.5951203E-03 -0.3131978E+01  0.3215353E+04 -0.3141593E+01  0.6160812E-02  0.4953520E-02  0.1662532E+05 -0.1570793E+01  0.5866196E-02 -0.1129362E+01
  0.1400000E+01  0.2845755E+06 -0.1570791E+01  0.1833837E-01 -0.3140507E+01  0.7154967E+05  0.2725748E-07  0.2357261E-02  0.4209355E+00  0.1390539E+06 -0.1570809E+01  0.3046668E+00 -0.1148082E+01  0.2100100E+05 -0.1570798E+01  0.1831154E-03 -0.3131176E+01  0.3196765E+04 -0.3141593E+01  0.3524208E-01  0.8118201E-04  0.1569620E+05 -0.1570796E+01  0.2608569E-02  0.1124740E+00
  0.1440000E+01  0.2873434E+06 -0.1570797E+01  0.1256043E-01  0.3107055E+01  0.6413450E+05 -0.2337550E-07  0.2981924E-02  0.2713030E+01  0.1627261E+06 -0.1570808E+01  0.1306081E+01  0.1627501E+01  0.1972268E+05 -0.1570795E+01  0.3814888E-03  0.9999666E-02  0.3158206E+04  0.3141593E+01  0.2573206E-01 -0.3140444E+01  0.1473521E+05 -0.1570797E+01  0.1447756E-01 -0.1541940E+01
  0.1480000E+01  0.2898512E+06 -0.1570799E+01  0.5896832E-02  0.2368336E-01  0.5722902E+05  0.2477130E-07  0.1581849E+00  0.3138234E+01  0.1870414E+06 -0.1570801E+01  0.1826273E+00  0.1337091E+01  0.1841896E+05 -0.1570795E+01  0.3967469E-03  0.9615088E-02  0.3100442E+04 -0.3141593E+01  0.1145560E-01 -0.3138263E+01  0.1375544E+05 -0.1570794E+01  0.2347227E-01 -0.1765586E+01
  0.1520000E+01  0.2921170E+06 -0.1570803E+01  0.5484070E-02  0.3104144E+01  0.5084347E+05  0.2250848E-07  0.4796315E-01  0.1094110E-01  0.2118489E+06 -0.1570791E+01  0.6344893E+00 -0.1405180E+01  0.1710644E+05 -0.1570797E+01  0.1220703E-03  0.3141593E+01  0.3024614E+04 -0.3141593E+01  0.4190447E-02  0.9103320E-03  0.1276944E+05 -0.1570798E+01  0.1160011E-01  0.2953912E+01
  0.1560000E+01  0.2941545E+06 -0.1570795E+01  0.5079358E-02  0.3128421E+01  0.4497927E+05  0.4135553E-07  0.6838494E-01  0.3136850E+01  0.2369979E+06 -0.1570784E+01  0.1974470E+00 -0.1501282E+01  0.1580117E+05 -0.1570796E+01  0.3662159E-03  0.5208286E-02  0.2932153E+04  0.3141593E+01  0.4476548E-02  0.3141113E+01  0.1178929E+05 -0.1570795E+01  0.1927214E-01  0.1227183E+01
  0.1600000E+01  0.2959801E+06 -0.1570798E+01  0.4488718E-02  0.3096750E+01  0.3962886E+05  0.1360884E-07  0.3221150E-01  0.3138055E+01  0.2623395E+06 -0.1570790E+01  0.1233056E+00  0.1554521E+01  0.1451757E+05 -0.1570798E+01  0.7631778E-04 -0.2499479E-01  0.2824982E+04  0.3141593E+01  0.7427235E-02 -0.2279144E-02  0.1082584E+05 -0.1570795E+01  0.7798095E-02 -0.1663875E+01
  0.1640000E+01  0.2976084E+06 -0.1570790E+01  0.6183278E-02 -0.8393323E-02  0.3477787E+05 -0.2646211E-08  0.6090679E-01  0.3134986E+01  0.2877329E+06 -0.1570791E+01  0.3067474E+00 -0.1788393E+01  0.1326860E+05 -0.1570796E+01  0.1296997E-03  0.3141593E+01  0.2704985E+04 -0.3141593E+01  0.2414992E-01 -0.1431504E-02  0.9888692E+04 -0.1570797E+01  0.6900309E-02 -0.9901727E+00
  0.1680000E+01  0.2990466E+06 -0.1570791E+01  0.1030338E-01 -0.3130905E+01  0.3040524E+05  0.1629436E-07  0.2291845E-03  0.1445635E+01  0.3130513E+06 -0.1570795E+01  0.6847165E+00 -0.1598842E+01  0.1206505E+05 -0.1570797E+01  0.1525879E-04  0.0000000E+00  0.2574521E+04  0.3141593E+01  0.1074794E-01 -0.3139308E+01  0.8986026E+04 -0.1570797E+01  0.1375778E-01  0.1986747E+01
  0.1720000E+01  0.3003065E+06 -0.1570794E+01  0.9591142E-02  0.1341818E-02  0.2648588E+05 -0.1861557E-07  0.4353025E-01  0.5824906E-02  0.3381716E+06 -0.1570785E+01  0.3771859E+00  0.1442530E+01  0.1091584E+05 -0.1570796E+01  0.1525909E-03  0.6249919E-02  0.2435783E+04 -0.3141593E+01  0.1246548E-01  0.3141306E+01  0.8124548E+04 -0.1570797E+01  0.4443183E-02 -0.2127809E+01
  0.1760000E+01  0.3014035E+06 -0.1570797E+01  0.6772362E-03  0.2986845E+01  0.2299093E+05  0.9976052E-08  0.8585245E-02 -0.3114589E+01  0.3629892E+06 -0.1570805E+01  0.8792379E-01 -0.1062283E+01  0.9827906E+04 -0.1570799E+01  0.1754761E-03  0.0000000E+00  0.2291056E+04 -0.3141593E+01  0.1567841E-01  0.3140604E+01  0.7309451E+04 -0.1570797E+01  0.2784262E-02 -0.1557438E+01
  0.1800000E+01  0.3023398E+06 -0.1570793E+01  0.1106374E-01 -0.1552339E-01  0.1988959E+05 -0.1752514E-07  0.5794192E-02  0.1366656E+00  0.3874073E+06 -0.1570790E+01  0.1117182E+00 -0.7351329E+00  0.8806134E+04 -0.1570796E+01  0.1068158E-03  0.8928334E-02  0.2142589E+04  0.3141593E+01  0.3699362E-02  0.3135921E+01  0.6544362E+04 -0.1570796E+01  0.2630172E-02  0.1340702E+01
  0.1840000E+01  0.3031274E+06 -0.1570794E+01  0.1971985E-01 -0.3137761E+01  0.1715030E+05  0.4940670E-07  0.1636864E-01 -0.3132183E+01  0.4113489E+06 -0.1570788E+01  0.3750218E+00 -0.1545829E+01  0.7853792E+04 -0.1570797E+01  0.4234314E-03  0.0000000E+00  0.1992478E+04  0.3141593E+01  0.2289295E-02  0.4165799E-03  0.5831674E+04 -0.1570796E+01  0.9873184E-02 -0.1236377E+01
  0.1880000E+01  0.3037686E+06 -0.1570798E+01  0.3987170E-03 -0.2745631E+01  0.1474122E+05 -0.1682054E-07  0.2834198E-01  0.3107545E+01  0.4347387E+06 -0.1570794E+01  0.2307113E+00 -0.1598823E+01  0.6972431E+04 -0.1570796E+01  0.2059959E-03 -0.4629597E-02  0.1842649E+04 -0.3141593E+01  0.9312634E-03 -0.3140568E+01  0.5172524E+04 -0.1570796E+01  0.2364868E-02 -0.1489853E+01
  0.1920000E+01  0.3042766E+06 -0.1570799E+01  0.9870792E-02 -0.3140976E+01  0.1263116E+05 -0.2972881E-07  0.5864280E-01 -0.1131483E-01  0.4575252E+06 -0.1570799E+01  0.3921078E+00 -0.1640271E+01  0.6162167E+04 -0.1570797E+01  0.9155770E-04  0.3131176E+01  0.1694825E+04 -0.3141593E+01  0.1068545E-01  0.3140778E+01  0.4566993E+04 -0.1570797E+01  0.4061227E-02  0.1682689E+01
  0.1960000E+01  0.3046528E+06 -0.1570795E+01  0.1489775E-01 -0.1526431E-01  0.1079024E+05 -0.6628732E-10  0.1538042E-01 -0.3863920E-01  0.4796558E+06 -0.1570797E+01  0.3605135E+00  0.1601936E+01  0.5422102E+04 -0.1570796E+01  0.7057835E-04  0.1351269E-01  0.1550575E+04  0.3141593E+01  0.9512513E-04  0.7023603E-01  0.4014312E+04 -0.1570796E+01  0.1028577E-02  0.9617699E+00
  0.2000000E+01  0.3049011E+06 -0.1570797E+01  0.1605903E-01  0.3133400E+01  0.9190144E+04  0.2822583E-07  0.2291611E-01  0.3095715E+01  0.5010907E+06 -0.1570798E+01  0.1101223E+01  0.1601050E+01  0.4750229E+04 -0.1570797E+01  0.1087199E-03 -0.4385937E-02  0.1411143E+04  0.3141593E+01  0.3095389E-02 -0.3851190E-03  0.3512988E+04 -0.1570797E+01  0.2884390E-02  0.1571954E+01
  0.2040000E+01  0.3050325E+06 -0.1570801E+01  0.9675351E-02 -0.2039685E-03  0.7804307E+04 -0.3067181E-07  0.1126957E-01 -0.1952554E-01  0.5217966E+06 -0.1570792E+01  0.4017372E+00  0.1523758E+01  0.4143850E+04 -0.1570797E+01  0.3814995E-04 -0.3129093E+01  0.1277620E+04  0.3141593E+01  0.4090080E-02 -0.2069365E-02  0.3060904E+04 -0.1570796E+01  0.2880232E-02 -0.1482025E+01
  0.2080000E+01  0.3050490E+06 -0.1570796E+01  0.4549597E-02 -0.5567226E-01  0.6608183E+04 -0.3837033E-07  0.4294489E-01  0.3121623E+01  0.5417540E+06 -0.1570791E+01  0.1073253E+00  0.1390345E+01  0.3599627E+04 -0.1570795E+01  0.4768610E-04  0.3131593E+01  0.1150847E+04 -0.3141593E+01  0.1796488E-02  0.2090242E-02  0.2655572E+04 -0.1570796E+01  0.1034088E-02 -0.1266873E+01
  0.2120000E+01  0.3049575E+06 -0.1570793E+01  0.4921462E-03 -0.2982373E+01  0.5579239E+04 -0.3480617E-07  0.2354017E-01 -0.1067085E-01  0.5609408E+06 -0.1570795E+01  0.9184312E+00  0.1627079E+01  0.3113855E+04 -0.1570796E+01  0.9727595E-04 -0.4901921E-02  0.1031450E+04 -0.3141593E+01  0.7498268E-02  0.3140567E+01  0.2294107E+04 -0.1570796E+01  0.1860881E-03 -0.1575921E+01
  0.2160000E+01  0.3047619E+06 -0.1570789E+01  0.5061225E-02  0.3075692E+01  0.4697098E+04  0.2444031E-07  0.2367767E-01 -0.3113437E+01  0.5793464E+06 -0.1570797E+01  0.8946191E+00  0.1592405E+01  0.2682569E+04 -0.1570796E+01  0.4768372E-05  0.3141593E+01  0.9198604E+03 -0.3141593E+01  0.4270196E-02  0.3141481E+01  0.1973545E+04 -0.1570798E+01  0.4474143E-03 -0.2138476E+01
  0.2200000E+01  0.3044639E+06 -0.1570794E+01  0.7703454E-03 -0.5202377E+00  0.3943165E+04  0.6983564E-08  0.1711429E-01  0.7587639E-01  0.5969569E+06 -0.1570800E+01  0.5513046E+00  0.1549558E+01  0.2301595E+04 -0.1570796E+01  0.3337945E-04  0.7142736E-02  0.8163270E+03 -0.3141593E+01  0.6331328E-03 -0.3135379E+01  0.1690702E+04 -0.1570796E+01  0.1474530E-03  0.6292718E+00
  0.2240000E+01  0.3040742E+06 -0.1570795E+01  0.1025124E-01 -0.3130598E+01  0.3300877E+04 -0.3773958E-07  0.8476919E-02  0.2157227E-01  0.6137703E+06 -0.1570796E+01  0.6619799E+00  0.1558864E+01  0.1966756E+04 -0.1570796E+01  0.1146642E-04  0.3079174E+01  0.7209432E+03  0.3141593E+01  0.1845360E-02 -0.3141302E+01  0.1442410E+04 -0.1570796E+01  0.1802520E-02 -0.1380437E+01
  0.2280000E+01  0.3035891E+06 -0.1570801E+01  0.3422897E-02 -0.3079514E+01  0.2755392E+04 -0.1114913E-06  0.2164595E-01  0.6107904E-02  0.6297912E+06 -0.1570794E+01  0.1105358E+01 -0.1638808E+01  0.1673892E+04 -0.1570797E+01  0.2193451E-04  0.0000000E+00  0.6336570E+03  0.3141593E+01  0.1706244E-02 -0.3140457E+01  0.1225537E+04 -0.1570797E+01  0.3620547E-03  0.1747204E+01
  0.2320000E+01  0.3030168E+06 -0.1570795E+01  0.1125097E-01  0.3130720E+01  0.2293575E+04 -0.9150254E-07  0.2498889E-01 -0.3138501E+01  0.6450159E+06 -0.1570796E+01  0.6864941E+00  0.1566475E+01  0.1419002E+04 -0.1570795E+01  0.1144657E-04 -0.3120762E+01  0.5543040E+03 -0.3141593E+01  0.3433526E-02  0.4253103E-03  0.1037038E+04 -0.1570795E+01  0.2585941E-03  0.1618758E+01
  0.2360000E+01  0.3023628E+06 -0.1570797E+01  0.6313059E-02  0.3104017E+01  0.1903752E+04 -0.3209176E-07  0.1968190E-01 -0.3135860E+01  0.6594452E+06 -0.1570791E+01  0.4378632E-01  0.2660320E+01  0.1198174E+04 -0.1570796E+01  0.5727011E-05  0.3099950E+01  0.4826117E+03 -0.3141593E+01  0.4045423E-03  0.3136362E+01  0.8739786E+03 -0.1570797E+01  0.1456298E-02 -0.1687298E+01
  0.2400000E+01  0.3016231E+06 -0.1570794E+01  0.1966910E-02 -0.2955664E+01  0.1575719E+04 -0.7364908E-07  0.8716688E-02 -0.3126907E+01  0.6730876E+06 -0.1570796E+01  0.5422223E+00 -0.1508492E+01  0.1007752E+04 -0.1570797E+01  0.2146065E-04  0.3124928E+01  0.4182384E+03  0.3141593E+01  0.8926989E-03 -0.3141025E+01  0.7335907E+03 -0.1570797E+01  0.3529073E-03  0.1418198E+01
  0.2440000E+01  0.3008065E+06 -0.1570795E+01  0.1165110E-02  0.2856045E+01  0.1300510E+04  0.1148085E-07  0.6164101E-02 -0.3090214E+01  0.6859484E+06 -0.1570803E+01  0.2834206E+00  0.1457564E+01  0.8442923E+03 -0.1570798E+01  0.3120006E-05 -0.1148766E+00  0.3607816E+03  0.3141593E+01  0.3737183E-02  0.3140831E+01  0.6132838E+03 -0.1570796E+01  0.5501952E-03 -0.1578055E+01
  0.2480000E+01  0.2999142E+06 -0.1570796E+01  0.6459889E-02 -0.5941466E-01  0.1070305E+04 -0.5568943E-09  0.2931581E-01  0.3132199E+01  0.6980469E+06 -0.1570796E+01  0.1584232E+01  0.1566732E+01  0.7046071E+03 -0.1570797E+01  0.3816559E-05 -0.3110353E+01  0.3097929E+03  0.3141593E+01  0.1394421E-02 -0.3140813E+01  0.5106584E+03 -0.1570796E+01  0.2224676E-03 -0.1669419E+01
  0.2520000E+01  0.2989485E+06 -0.1570796E+01  0.1896209E-02 -0.3068139E+01  0.8783476E+03 -0.3386213E-07  0.9189184E-02 -0.3087870E+01  0.7093815E+06 -0.1570797E+01  0.1131876E+01  0.1577285E+01  0.5857781E+03 -0.1570796E+01  0.4293190E-05 -0.3113822E+01  0.2648075E+03  0.3141593E+01  0.1640499E-02 -0.3141039E+01  0.4235226E+03 -0.1570796E+01  0.5759298E-03  0.1390573E+01
  0.2560000E+01  0.2979069E+06 -0.1570796E+01  0.3973354E-02 -0.3130859E+01  0.7187397E+03  0.4424283E-07  0.8506694E-02  0.6991160E-01  0.7199689E+06 -0.1570796E+01  0.5733128E+00 -0.1661523E+01  0.4851221E+03 -0.1570796E+01  0.1013297E-04  0.5882285E-02  0.2253333E+03 -0.3141593E+01  0.1661957E-02  0.5827923E-03  0.3498598E+03 -0.1570796E+01  0.8379524E-03 -0.1513576E+01
  0.2600000E+01  0.2967938E+06 -0.1570796E+01  0.4930052E-02 -0.3138209E+01  0.5864467E+03  0.1337542E-06  0.1002432E-02 -0.2994539E+01  0.7298246E+06 -0.1570798E+01  0.4510411E+00  0.1453194E+01  0.4002338E+03 -0.1570796E+01  0.1431753E-05 -0.3099950E+01  0.1908869E+03 -0.3141593E+01  0.6365940E-03  0.2165208E-02  0.2878697E+03 -0.1570797E+01  0.3743759E-04 -0.2709991E+01
  0.2640000E+01  0.2956123E+06 -0.1570796E+01  0.7007002E-03 -0.1996600E+00  0.4771160E+03 -0.1289871E-06  0.2062657E-01 -0.3114445E+01  0.7389514E+06 -0.1570794E+01  0.1233868E+01  0.1573984E+01  0.3289496E+03 -0.1570796E+01  0.4172325E-06  0.0000000E+00  0.1609884E+03  0.3141593E+01  0.3385759E-04 -0.5261776E-01  0.2359297E+03 -0.1570796E+01  0.1483805E-03 -0.1736349E+01
  0.2680000E+01  0.2943623E+06 -0.1570793E+01  0.8104589E-02  0.1861611E-01  0.3870384E+03 -0.1370617E-06  0.6926123E-02 -0.1140048E-01  0.7473674E+06 -0.1570795E+01  0.5145264E+00  0.1501759E+01  0.2693413E+03 -0.1570797E+01  0.2444517E-05 -0.2438541E-01  0.1351743E+03 -0.3141593E+01  0.2964590E-03 -0.3140009E+01  0.1926032E+03 -0.1570796E+01  0.5236393E-04 -0.1605236E+01
  0.2720000E+01  0.2930439E+06 -0.1570794E+01  0.1027818E-02  0.2787813E+01  0.3130477E+03 -0.2684656E-07  0.5961946E-02 -0.4052195E-01  0.7550814E+06 -0.1570796E+01  0.5800380E+00 -0.1571180E+01  0.2197076E+03 -0.1570797E+01  0.1195441E-05 -0.7485985E-01  0.1130022E+03  0.3141593E+01  0.4881397E-03  0.0000000E+00  0.1566167E+03 -0.1570796E+01  0.6155640E-04 -0.1664130E+01
  0.2760000E+01  0.2916559E+06 -0.1570799E+01  0.9835296E-02  0.3128889E+01  0.2524541E+03 -0.1047698E-06  0.1402695E-01  0.1522975E-02  0.7621165E+06 -0.1570795E+01  0.6604072E+00 -0.1593837E+01  0.1785492E+03 -0.1570796E+01  0.3576279E-06  0.3141593E+01  0.9405514E+02  0.3141593E+01  0.2556519E-03 -0.1034593E-02  0.1268559E+03 -0.1570796E+01  0.1839989E-04  0.6782507E+00
  0.2800000E+01  0.2902025E+06 -0.1570796E+01  0.2886327E-02  0.3139152E+01  0.2029840E+03 -0.1834161E-06  0.3260893E-02  0.2122508E-01  0.7684792E+06 -0.1570795E+01  0.1006531E+01 -0.1605579E+01  0.1445601E+03 -0.1570796E+01  0.4768372E-06  0.0000000E+00  0.7794547E+02  0.3141593E+01  0.4637241E-04  0.8033419E-04  0.1023487E+03 -0.1570796E+01  0.1053591E-03  0.1366855E+01
  0.2840000E+01  0.2886790E+06 -0.1570796E+01  0.2285250E-02  0.1234766E+00  0.1627197E+03  0.2811373E-07  0.2679304E-01  0.3132886E+01  0.7741731E+06 -0.1570797E+01  0.3522514E+00  0.1501369E+01  0.1166069E+03 -0.1570797E+01  0.1639399E-05 -0.1817982E-01  0.6431712E+02  0.3141593E+01  0.2810323E-03 -0.7290657E-03  0.8225392E+02 -0.1570796E+01  0.2262561E-04  0.1680508E+01
  0.2880000E+01  0.2870873E+06 -0.1570796E+01  0.3919100E-02 -0.3121787E+01  0.1300516E+03 -0.1942684E-06  0.5143257E-02 -0.4354054E-01  0.7792222E+06 -0.1570793E+01  0.9799953E-01  0.1495084E+01  0.9371243E+02 -0.1570797E+01  0.2086163E-06  0.3141593E+01  0.5284476E+02  0.3141593E+01  0.1000241E-03 -0.1340781E-02  0.6584756E+02 -0.1570797E+01  0.3850723E-04  0.1664872E+01
  0.2920000E+01  0.2854306E+06 -0.1570798E+01  0.4047686E-02  0.3125420E+01  0.1036246E+03  0.3735192E-07  0.4462734E-02 -0.2692739E+00  0.7836464E+06 -0.1570797E+01  0.1127253E+00 -0.1757651E+01  0.7503388E+02 -0.1570796E+01  0.4619360E-06  0.0000000E+00  0.4323294E+02  0.3141593E+01  0.2697875E-04 -0.3866316E-02  0.5250731E+02 -0.1570796E+01  0.1392881E-03 -0.1535445E+01
  0.2960000E+01  0.2837017E+06 -0.1570795E+01  0.4436733E-02  0.3069733E+01  0.8231461E+02  0.5657092E-08  0.2028274E-02  0.1565431E+00  0.7874331E+06 -0.1570794E+01  0.1630312E+00 -0.1629484E+01  0.5985697E+02 -0.1570796E+01  0.1053671E-06  0.2999696E+01  0.3521929E+02  0.3141593E+01  0.2308749E-04  0.3141593E+01  0.4170638E+02 -0.1570796E+01  0.3059054E-05  0.2425569E+01
  0.3000000E+01  0.2819090E+06 -0.1570796E+01  0.8955275E-02  0.3115622E+01  0.6518499E+02 -0.1465885E-06  0.5606428E-02 -0.3119001E+01  0.7906241E+06 -0.1570796E+01  0.2258004E+00  0.1672672E+01  0.4757487E+02 -0.1570796E+01  0.5268356E-07 -0.1418971E+00  0.2856975E+02  0.3141593E+01  0.8853711E-04 -0.3141572E+01  0.3299805E+02 -0.1570796E+01  0.8595707E-05  0.1620874E+01
  0.3040000E+01  0.2800444E+06 -0.1570796E+01  0.3582205E-03 -0.2436424E+01  0.5145933E+02  0.1718246E-06  0.4015948E-01 -0.3138707E+01  0.7932046E+06 -0.1570795E+01  0.4006208E+00 -0.1579974E+01  0.3767437E+02 -0.1570796E+01  0.6746788E-07 -0.3030936E+01  0.2307813E+02 -0.3141593E+01  0.7838759E-04 -0.9385987E-03  0.2600593E+02 -0.1570796E+01  0.6845118E-05  0.2235742E+01
  0.3080000E+01  0.2781099E+06 -0.1570797E+01  0.3040863E-02 -0.7420556E-01  0.4049612E+02 -0.5243503E-08  0.1548982E-01  0.8559262E-02  0.7951952E+06 -0.1570796E+01  0.5975147E-02  0.2572262E+01  0.2972500E+02 -0.1570796E+01  0.8195639E-07  0.0000000E+00  0.1856395E+02  0.3141593E+01  0.7091742E-04  0.3141580E+01  0.2041516E+02 -0.1570796E+01  0.1867362E-04  0.1562767E+01
  0.3120000E+01  0.2761034E+06 -0.1570794E+01  0.3664978E-03  0.5785811E+00  0.3176760E+02  0.1057162E-06  0.1054198E-01 -0.3118919E+01  0.7966039E+06 -0.1570794E+01  0.2276334E+01 -0.1567346E+01  0.2336759E+02 -0.1570796E+01  0.1341105E-06  0.3141593E+01  0.1487044E+02  0.3141593E+01  0.1849234E-04 -0.4029009E-03  0.1596343E+02 -0.1570796E+01  0.1421605E-05  0.4749275E+00