VARIABLES="w (rad/s)"  
"abs(F   1   1)" "angle(F   1   1)"
"abs(F   1   2)" "angle(F   1   2)"
"abs(F   1   3)" "angle(F   1   3)"
"abs(F   1   4)" "angle(F   1   4)"
"abs(F   1   5)" "angle(F   1   5)"
"abs(F   1   6)" "angle(F   1   6)"
"abs(F   2   1)" "angle(F   2   1)"
"abs(F   2   2)" "angle(F   2   2)"
"abs(F   2   3)" "angle(F   2   3)"
"abs(F   2   4)" "angle(F   2   4)"
"abs(F   2   5)" "angle(F   2   5)"
"abs(F   2   6)" "angle(F   2   6)"
Zone t="Diffraction force - beta =   0.000 deg",I=   500,F=POINT
  0.3000000E-01  0.6823151E+04 -0.1570141E+01  0.3035530E-03 -0.1948012E+01  0.7321169E+03 -0.2569751E+01  0.4598348E-02  0.1959469E+01  0.5097007E+04 -0.1569653E+01  0.2938811E-02  0.1521087E+01  0.6823675E+04 -0.1356989E+01  0.1855394E-02 -0.1561637E+01  0.6744958E+03 -0.2858473E+01  0.3855554E-02  0.2292262E+01  0.5098018E+04 -0.1357319E+01  0.2286227E-02  0.1820048E+01
  0.6000000E-01  0.1366052E+05 -0.1568883E+01  0.1120788E-02  0.1265256E+01  0.2022139E+04 -0.2497101E+01  0.5910214E-02  0.2271147E+01  0.1019353E+05 -0.1567485E+01  0.3484021E-02  0.1368659E+01  0.1366842E+05 -0.1143142E+01  0.3070262E-02 -0.1027117E+01  0.2092612E+04 -0.2501413E+01  0.8981000E-02  0.2773486E+01  0.1020474E+05 -0.1144034E+01  0.2622094E-02  0.1566606E+01
  0.9000000E-01  0.2046075E+05 -0.1568938E+01  0.3584233E-02 -0.1246002E+01  0.3744627E+04 -0.2503377E+01  0.1873805E-01  0.2233559E+01  0.1522754E+05 -0.1567563E+01  0.8466615E-03  0.1155042E+01  0.2049572E+05 -0.9274715E+00  0.4524926E-02 -0.1093033E+01  0.4447347E+04 -0.2247022E+01  0.1791796E-01  0.2961739E+01  0.1527519E+05 -0.9281772E+00  0.4852687E-02  0.2910891E+01
  0.1200000E+00  0.2730587E+05 -0.1569503E+01  0.7551176E-02 -0.1220143E+01  0.5426747E+04 -0.2548496E+01  0.1899229E-01  0.2748509E+01  0.2029249E+05 -0.1568531E+01  0.6004800E-02 -0.2620707E+01  0.2739516E+05 -0.7110547E+00  0.5348966E-02 -0.1291439E+01  0.7421008E+04 -0.2000343E+01  0.2697019E-01 -0.2653592E+01  0.2041419E+05 -0.7119437E+00  0.5832966E-02  0.2838109E+01
  0.1500000E+00  0.3415232E+05 -0.1571539E+01  0.6164480E-02  0.1177819E+01  0.7233576E+04 -0.2662071E+01  0.2886927E-01  0.3081620E+01  0.2528533E+05 -0.1572099E+01  0.1501469E-02  0.1573083E+01  0.3430670E+05 -0.4929854E+00  0.1199707E-01 -0.9265702E+00  0.1103713E+05 -0.1763602E+01  0.4341674E-01 -0.2388855E+01  0.2549655E+05 -0.4939881E+00  0.6643727E-02  0.8517071E+00
  0.1800000E+00  0.4110160E+05 -0.1575149E+01  0.1245773E-01 -0.9500279E+00  0.9673821E+04 -0.2824974E+01  0.5221074E-01  0.2560622E+01  0.3036658E+05 -0.1578439E+01  0.9091850E-03 -0.3129509E+01  0.4128143E+05 -0.2727569E+00  0.1066503E-01 -0.3272070E+00  0.1524519E+05 -0.1529330E+01  0.6954926E-01 -0.2207932E+01  0.3061780E+05 -0.2737609E+00  0.1758762E-01 -0.2577052E+00
  0.2100000E+00  0.4823792E+05 -0.1579605E+01  0.1795209E-01  0.1128164E+01  0.1352204E+05 -0.2974912E+01  0.5918333E-01  0.3064254E+01  0.3561254E+05 -0.1586241E+01  0.1257049E-01  0.1520558E+01  0.4832006E+05 -0.4995787E-01  0.1428069E-01  0.1795725E+00  0.2000247E+05 -0.1295509E+01  0.8168519E-01 -0.1896963E+01  0.3574628E+05 -0.5088679E-01  0.2642034E-01  0.2146172E+00
  0.2400000E+00  0.5566985E+05 -0.1583470E+01  0.1693541E-01  0.1260397E+01  0.1929555E+05 -0.3061452E+01  0.7049608E-01  0.3137904E+01  0.4114912E+05 -0.1592945E+01  0.2409488E-01  0.1703107E+01  0.5543412E+05  0.1758968E+00  0.1456687E-01  0.6994618E-01  0.2526747E+05 -0.1060740E+01  0.8037598E-01 -0.1649244E+01  0.4088381E+05  0.1751511E+00  0.2013586E-01  0.1355441E+00
  0.2700000E+00  0.6347882E+05 -0.1584819E+01  0.3795819E-01  0.1254537E+01  0.2701053E+05 -0.3079698E+01  0.1053815E+00 -0.2959302E+01  0.4708329E+05 -0.1595163E+01  0.3269697E-01  0.1658353E+01  0.6263509E+05  0.4053221E+00  0.1331572E-01 -0.1690446E+00  0.3099264E+05 -0.8236108E+00  0.9770610E-01 -0.1340565E+01  0.4605278E+05  0.4049070E+00  0.2240901E-01  0.8034693E+00
  0.3000000E+00  0.7167591E+05 -0.1581744E+01  0.3912024E-01  0.1500764E+01  0.3635121E+05 -0.3045367E+01  0.1070564E+00  0.2991242E+01  0.5337043E+05 -0.1589701E+01  0.3353833E-01  0.1744741E+01  0.6994102E+05  0.6388605E+00  0.1623314E-01 -0.1015194E-01  0.3717416E+05 -0.5848945E+00  0.1114352E+00 -0.1147116E+01  0.5122385E+05  0.6389607E+00  0.2244058E-01  0.3385231E+00
  0.3300000E+00  0.8014173E+05 -0.1573017E+01  0.1925915E-01  0.1233708E+01  0.4662515E+05 -0.2977418E+01  0.9780149E-01  0.3065784E+01  0.5988590E+05 -0.1574630E+01  0.5472808E-01  0.1860420E+01  0.7735881E+05  0.8770827E+00  0.1339912E-01  0.4736860E-01  0.4375904E+05 -0.3424494E+00  0.1435478E+00 -0.9816652E+00  0.5643650E+05  0.8779216E+00  0.1316176E-01  0.3014242E+00
  0.3600000E+00  0.8862441E+05 -0.1558634E+01  0.4250392E-01  0.1004087E+01  0.5696959E+05 -0.2889490E+01  0.1258074E+00 -0.3134694E+01  0.6626499E+05 -0.1550068E+01  0.2028881E-01  0.1791345E+01  0.8489901E+05  0.1120552E+01  0.1581958E-01  0.7662453E+00  0.5074641E+05 -0.9576274E-01  0.1682016E+00 -0.7086546E+00  0.6165415E+05  0.1122362E+01  0.2849676E-02  0.3461360E+00
  0.3900000E+00  0.9677516E+05 -0.1540288E+01  0.2904663E-01  0.1029007E+01  0.6637484E+05 -0.2792193E+01  0.1479630E+00  0.3062439E+01  0.7208534E+05 -0.1518737E+01  0.4606343E-01  0.1558911E+01  0.9258498E+05  0.1369926E+01  0.2017505E-01 -0.9154963E+00  0.5813574E+05  0.1554315E+00  0.1048463E+00 -0.4611600E+00  0.6690810E+05  0.1373006E+01  0.1062328E-01 -0.5258164E+00
  0.4200000E+00  0.1041892E+06 -0.1521279E+01  0.6504709E-01  0.1336284E+01  0.7370844E+05 -0.2695823E+01  0.1204474E+00  0.2957846E+01  0.7685455E+05 -0.1485733E+01  0.4104331E-01  0.2189811E+01  0.1004075E+06  0.1625715E+01  0.2563434E-01 -0.3495826E+00  0.6587443E+05  0.4130327E+00  0.1403964E+00 -0.1016944E+00  0.7218936E+05  0.1630273E+01  0.4522080E-01 -0.1260877E+01
  0.4500000E+00  0.1106315E+06 -0.1506656E+01  0.4294770E-01  0.1020094E+01  0.7810609E+05 -0.2612403E+01  0.1314217E+00  0.3088798E+01  0.8019907E+05 -0.1459069E+01  0.3489038E-01  0.1256265E+01  0.1084037E+06  0.1888565E+01  0.2905455E-01  0.8187010E+00  0.7397424E+05  0.6776775E+00  0.2133047E+00  0.1130372E+00  0.7747621E+05  0.1894816E+01  0.3458444E-01 -0.6966956E+00
  0.4800000E+00  0.1161931E+06 -0.1502420E+01  0.3836248E-01  0.1127727E+01  0.7914552E+05 -0.2558067E+01  0.1896943E+00  0.2980195E+01  0.8222241E+05 -0.1449266E+01  0.4377531E-01  0.9599607E+00  0.1165952E+06  0.2159148E+01  0.1834630E-01  0.1050969E+01  0.8234145E+05  0.9506981E+00  0.1762981E+00  0.5199912E+00  0.8283123E+05  0.2167274E+01  0.1161461E-01 -0.1859837E+01
  0.5100000E+00  0.1215835E+06 -0.1513809E+01  0.5148342E-01  0.1431892E+01  0.7757631E+05 -0.2556351E+01  0.1696596E+00  0.2880110E+01  0.8374270E+05 -0.1467221E+01  0.8504214E-01  0.1807253E+01  0.1250391E+06  0.2438275E+01  0.1087548E-01  0.1332412E+01  0.9092626E+05  0.1233105E+01  0.1591594E+00  0.4057135E+00  0.8831120E+05  0.2448498E+01  0.8200777E-02 -0.1046001E+01
  0.5400000E+00  0.1282023E+06 -0.1541542E+01  0.6149882E-01  0.1370188E+01  0.7607951E+05 -0.2629738E+01  0.1226737E+00 -0.2987437E+01  0.8646791E+05 -0.1516724E+01  0.6555105E-01  0.1036822E+01  0.1337714E+06  0.2726918E+01  0.4506508E-01  0.1460503E+01  0.9951687E+05  0.1525097E+01  0.1689699E+00  0.7440082E+00  0.9388576E+05  0.2739602E+01  0.7498709E-01  0.8978443E-01
  0.5699999E+00  0.1379461E+06 -0.1577572E+01  0.9183708E-01  0.1465026E+01  0.7955252E+05 -0.2770838E+01  0.1172202E+00 -0.2977774E+01  0.9292590E+05 -0.1583032E+01  0.8711425E-01  0.1570397E+01  0.1428990E+06  0.3026390E+01  0.4497985E-01  0.2450816E+01  0.1080606E+06  0.1827212E+01  0.1219718E+00  0.8148489E+00  0.9972290E+05  0.3042227E+01  0.6176281E-01 -0.4928732E+00
  0.6000000E+00  0.1521530E+06 -0.1604921E+01  0.1376993E-01 -0.3133946E+01  0.9222775E+05 -0.2904615E+01  0.1037683E+00 -0.2930216E+01  0.1047457E+06 -0.1631543E+01  0.5030484E-01  0.1209555E+01  0.1524304E+06 -0.2944995E+01  0.1400246E-01  0.1895545E+01  0.1164031E+06  0.2139158E+01  0.1196450E+00  0.1363631E+01  0.1058340E+06 -0.2924862E+01  0.2032758E-01 -0.2336180E+00
  0.6299999E+00  0.1705559E+06 -0.1605956E+01  0.2076395E-01  0.2323124E+01  0.1134801E+06 -0.2957385E+01  0.1208784E+00  0.2751133E+01  0.1212298E+06 -0.1631123E+01  0.4729714E-01  0.1564292E+01  0.1623662E+06 -0.2619223E+01  0.4940304E-01  0.1479995E+01  0.1245374E+06  0.2460635E+01  0.1005005E+00  0.1997198E+01  0.1121560E+06 -0.2593119E+01  0.1522366E-01  0.2009026E+01
  0.6600000E+00  0.1906560E+06 -0.1572456E+01  0.3096686E-01  0.1385009E+01  0.1383257E+06 -0.2921841E+01  0.1160710E-01  0.4333773E+00  0.1392126E+06 -0.1573587E+01  0.3680417E-01  0.1723529E+01  0.1726075E+06 -0.2278019E+01  0.5721658E-01  0.2640153E+01  0.1325537E+06  0.2791864E+01  0.3629250E-01 -0.2717170E+01  0.1185655E+06 -0.2243922E+01  0.7456902E-01  0.9923829E+00
  0.6899999E+00  0.2081425E+06 -0.1508970E+01  0.1226945E+00  0.1537410E+01  0.1604533E+06 -0.2825671E+01  0.9829445E-01  0.5851681E-01  0.1539925E+06 -0.1470149E+01  0.1058222E+00  0.1091842E+01  0.1829575E+06 -0.1920593E+01  0.8056272E-01  0.2677945E+01  0.1407225E+06  0.3134438E+01  0.1471784E+00  0.7073662E-01  0.1248781E+06 -0.1876592E+01  0.2850024E-01  0.9852527E+00
  0.7200000E+00  0.2181783E+06 -0.1431401E+01  0.6549812E-01  0.2294123E+01  0.1738735E+06 -0.2699924E+01  0.1397067E+00 -0.9742439E+00  0.1604699E+06 -0.1342988E+01  0.7358204E-01  0.6430233E+00  0.1932400E+06 -0.1547018E+01  0.1155607E+00  0.2754166E+01  0.1493232E+06 -0.2791618E+01  0.1744445E+00 -0.5973956E-01  0.1308917E+06 -0.1491987E+01  0.1192118E+00  0.1594022E+01
  0.7499999E+00  0.2176554E+06 -0.1367094E+01  0.1352666E+00  0.2112427E+01  0.1745591E+06 -0.2578289E+01  0.1841942E+00 -0.2373236E+00  0.1548368E+06 -0.1226352E+01  0.9739627E-01  0.1257369E+01  0.2035174E+06 -0.1157924E+01  0.1723265E+00 -0.2848119E+01  0.1586261E+06 -0.2416777E+01  0.4021248E+00  0.3251220E+00  0.1365680E+06 -0.1092000E+01  0.8063339E-01  0.1297312E+01
  0.7800000E+00  0.2088420E+06 -0.1356539E+01  0.1468319E+00  0.2648288E+01  0.1614028E+06 -0.2503392E+01  0.2925934E+00 -0.3983488E+00  0.1380639E+06 -0.1181697E+01  0.6958515E-02  0.8519663E+00  0.2142646E+06 -0.7532381E+00  0.2534996E+00 -0.2306243E+01  0.1674371E+06 -0.2016827E+01  0.5999750E+00  0.7049083E+00  0.1424999E+06 -0.6776428E+00  0.9642927E-01  0.2948845E+01
  0.8100000E+00  0.2040647E+06 -0.1435535E+01  0.8817897E-01  0.2825762E+01  0.1430287E+06 -0.2545486E+01  0.3014703E+00 -0.3500083E+00  0.1225644E+06 -0.1304142E+01  0.3507562E-01 -0.1669886E+01  0.2262529E+06 -0.3307819E+00  0.1698536E+00 -0.1836602E+01  0.1754646E+06 -0.1594679E+01  0.4737245E+00  0.1171413E+01  0.1496769E+06 -0.2464619E+00  0.6036970E-01  0.4259717E-01
  0.8400000E+00  0.2232618E+06 -0.1558139E+01  0.1434277E+00 -0.2062008E+01  0.1386827E+06 -0.2733444E+01  0.1819596E+00  0.1074861E+01  0.1352455E+06 -0.1545260E+01  0.1144833E+00 -0.3358863E+00  0.2402118E+06  0.1153798E+00  0.1213142E+00 -0.1500584E+01  0.1813770E+06 -0.1150417E+01  0.1571690E+00  0.1858551E+01  0.1590351E+06  0.2105277E+00  0.4050228E-01 -0.1884584E+00
  0.8700000E+00  0.2712686E+06 -0.1592026E+01  0.3800128E+00 -0.1672488E+01  0.1651305E+06 -0.2891054E+01  0.4342329E+00  0.1359976E+01  0.1826301E+06 -0.1606197E+01  0.1351661E+00 -0.3740137E+00  0.2558260E+06  0.5929666E+00  0.6394661E-01 -0.4694037E+00  0.1853107E+06 -0.6942469E+00  0.1351281E+00 -0.2980966E+01  0.1702853E+06  0.7059044E+00  0.8146066E-01 -0.2854629E+00
  0.9000000E+00  0.3246989E+06 -0.1492955E+01  0.3258410E+00 -0.1408967E+01  0.2063086E+06 -0.2868040E+01  0.6214008E+00  0.1408445E+01  0.2358740E+06 -0.1447994E+01  0.5480603E-01  0.8630420E-01  0.2706372E+06  0.1105741E+01  0.2434936E-01 -0.1267238E+01  0.1883090E+06 -0.2269284E+00  0.7721148E-01 -0.2790816E+01  0.1810957E+06  0.1246299E+01  0.5119581E-01  0.1363300E+01
  0.9300000E+00  0.3505608E+06 -0.1315686E+01  0.1564358E+00 -0.1167632E+01  0.2346350E+06 -0.2719525E+01  0.2362458E+00  0.1190736E+01  0.2627312E+06 -0.1179783E+01  0.7093874E-01  0.1244997E+01  0.2818091E+06  0.1647531E+01  0.6903778E-01 -0.5628589E+00  0.1929468E+06  0.2513120E+00  0.2175244E+00  0.2860246E+01  0.1884380E+06  0.1823030E+01  0.1045626E+00 -0.1822621E+01
  0.9600000E+00  0.3277769E+06 -0.1151621E+01  0.1978883E+00  0.1654392E+01  0.2313912E+06 -0.2545859E+01  0.4452210E+00 -0.1503033E+01  0.2415527E+06 -0.9016504E+00  0.1103812E+00  0.2579505E+01  0.2889518E+06  0.2203376E+01  0.1535690E+00  0.9205037E+00  0.2004010E+06  0.7599360E+00  0.4983724E+00 -0.2677656E+01  0.1913389E+06  0.2412099E+01  0.2829200E+00 -0.9208336E+00
  0.9900000E+00  0.2719317E+06 -0.1147449E+01  0.3545507E+00  0.1657685E+01  0.1982040E+06 -0.2457423E+01  0.5399559E+00 -0.1675565E+01  0.1756132E+06 -0.7811383E+00  0.1476911E+00  0.2171735E+01  0.2969974E+06  0.2764333E+01  0.1610025E+00 -0.2899800E+01  0.2077674E+06  0.1312675E+01  0.3548869E+00  0.1170690E+00  0.1942680E+06  0.2993391E+01  0.2159673E+00 -0.2200042E+00
  0.1020000E+01  0.2645747E+06 -0.1409008E+01  0.5074411E-01 -0.6168444E+00  0.1667340E+06 -0.2599183E+01  0.7808648E-01  0.1419738E+01  0.1384187E+06 -0.1219128E+01  0.1347259E+00 -0.1474300E+01  0.3127730E+06 -0.2936997E+01  0.1593312E+00 -0.2310954E+01  0.2105866E+06  0.1902781E+01  0.2463264E+00  0.5761209E+00  0.2054773E+06 -0.2699526E+01  0.9396636E-01  0.1247160E+01
  0.1050000E+01  0.3611558E+06 -0.1507239E+01  0.7670122E+00 -0.1341569E+01  0.1882842E+06 -0.2839177E+01  0.1167458E+01  0.1532580E+01  0.2317001E+06 -0.1459128E+01  0.1531037E+00  0.7793566E-01  0.3353919E+06 -0.2300153E+01  0.1551012E+00 -0.2155590E+01  0.2074434E+06  0.2505125E+01  0.2719062E+00  0.1909245E-01  0.2269782E+06 -0.2044136E+01  0.8791426E-01  0.1250429E+01
  0.1080000E+01  0.4555487E+06 -0.1292454E+01  0.6106452E+00 -0.1199511E+01  0.2398612E+06 -0.2799770E+01  0.1002366E+01  0.1902571E+01  0.3347498E+06 -0.1151000E+01  0.1314196E+00  0.2514262E+00  0.3507492E+06 -0.1598764E+01  0.1682938E+00 -0.9583216E+00  0.2030652E+06  0.3098237E+01  0.4231378E+00  0.1753771E+01  0.2459228E+06 -0.1296824E+01  0.2004842E+00  0.1431596E+01
  0.1110000E+01  0.4434919E+06 -0.9938578E+00  0.1033318E+00 -0.1449450E+01  0.2565290E+06 -0.2599688E+01  0.6285321E-01  0.9829431E+00  0.3449462E+06 -0.7120991E+00  0.1409587E-01 -0.1594830E+01  0.3474253E+06 -0.8773897E+00  0.3416165E-01  0.1111583E+01  0.2062625E+06 -0.2579078E+01  0.1756107E+00 -0.3133877E+01  0.2472880E+06 -0.5118734E+00  0.1609084E+00  0.1752420E+01
  0.1140000E+01  0.3303699E+06 -0.8675282E+00  0.3942907E+00  0.2162604E+01  0.2228342E+06 -0.2451639E+01  0.4050345E+00 -0.8275616E+00  0.2460667E+06 -0.3711351E+00  0.1815741E+00  0.2950360E+01  0.3385192E+06 -0.1864150E+00  0.2382713E+00  0.6925510E+00  0.2132550E+06 -0.1914648E+01  0.1646764E+00 -0.2361274E+01  0.2374865E+06  0.2283215E+00  0.1679997E+00  0.2187290E+01
  0.1170000E+01  0.2816889E+06 -0.1237407E+01  0.8708318E-01  0.4785007E+00  0.1795835E+06 -0.2556162E+01  0.2325078E+00 -0.1510562E+01  0.1388195E+06 -0.7728443E+00  0.4365043E-01 -0.1180645E+00  0.3480784E+06  0.4993188E+00  0.2602928E+00  0.1196403E+01  0.2134075E+06 -0.1194624E+01  0.3888930E+00 -0.2431054E+01  0.2426726E+06  0.9182084E+00  0.1419032E+00  0.2953277E+01
  0.1200000E+01  0.4265936E+06 -0.1338588E+01  0.5945239E+00 -0.9060287E+00  0.1997144E+06 -0.2791321E+01  0.9321979E+00  0.2090205E+01  0.2678012E+06 -0.1167127E+01  0.3279957E+00 -0.9835524E+00  0.3732891E+06  0.1267984E+01  0.1154595E+00  0.2225970E+01  0.2044026E+06 -0.4731840E+00  0.2193217E+00 -0.1155556E+01  0.2732220E+06  0.1686053E+01  0.7606927E-01 -0.1713783E+01
  0.1230000E+01  0.5115673E+06 -0.1005419E+01  0.1611791E+00 -0.9691806E+00  0.2446184E+06 -0.2707928E+01  0.4409567E+00  0.2527191E+01  0.3855445E+06 -0.7268002E+00  0.2133099E+00 -0.8636206E+00  0.3766659E+06  0.2123055E+01  0.4414536E-01  0.2070957E+01  0.1977759E+06  0.2211380E+00  0.1610046E+00  0.1865781E+01  0.2950108E+06  0.2587410E+01  0.6329115E-01 -0.1081153E+01
  0.1260000E+01  0.4154177E+06 -0.6915202E+00  0.3454589E+00  0.2601211E+01  0.2374455E+06 -0.2515558E+01  0.2576162E+00 -0.1420371E+01  0.3425468E+06 -0.2235310E+00  0.1925638E+00  0.2897970E+01  0.3501599E+06  0.2955588E+01  0.8583074E-01 -0.2421498E+01  0.2010153E+06  0.9491549E+00  0.1149842E+00  0.1687436E+01  0.2832798E+06 -0.2786046E+01  0.1779401E+00 -0.1765649E+01
  0.1290000E+01  0.2741179E+06 -0.8503324E+00  0.3088732E+00  0.2008563E+01  0.1942328E+06 -0.2484593E+01  0.3338653E+00 -0.9725900E+00  0.1894070E+06 -0.5043394E-01  0.1639793E+00  0.2482150E+01  0.3340947E+06 -0.2560242E+01  0.6417518E-01 -0.1599018E+01  0.2029361E+06  0.1746356E+01  0.1120154E+00  0.1530017E+01  0.2664100E+06 -0.1970737E+01  0.1574244E+00 -0.1656928E+01
  0.1320000E+01  0.3647012E+06 -0.1205018E+01  0.3297949E+00 -0.1076253E+01  0.1848559E+06 -0.2688118E+01  0.2258882E+00  0.2291270E+01  0.1971752E+06 -0.8028594E+00  0.8495414E-01 -0.6833450E-01  0.3482830E+06 -0.1748598E+01  0.8594236E-01 -0.2761260E+01  0.1955541E+06  0.2566717E+01  0.1654167E+00 -0.2030312E+00  0.2815294E+06 -0.1174236E+01  0.6994426E-01 -0.7071270E+00
  0.1350000E+01  0.4751821E+06 -0.9277990E+00  0.2588485E+00 -0.1072197E+01  0.2184792E+06 -0.2699326E+01  0.2153688E+00  0.1942799E+01  0.3422822E+06 -0.5419723E+00  0.2039963E+00 -0.6528974E+00  0.3536025E+06 -0.8199136E+00  0.2484321E-01  0.2566469E+01  0.1854640E+06 -0.2920196E+01  0.2618632E-01 -0.4214192E+00  0.3090069E+06 -0.2401009E+00  0.1111657E+00 -0.6824452E-01
  0.1380000E+01  0.3994502E+06 -0.5940474E+00  0.2417520E+00  0.2540593E+01  0.2194870E+06 -0.2550323E+01  0.3372068E+00 -0.6976806E+00  0.3385592E+06 -0.3961215E-01  0.5769622E-01  0.9356762E-01  0.3244904E+06  0.1151896E+00  0.9252302E-01  0.3601558E+00  0.1838356E+06 -0.2114370E+01  0.2102095E+00 -0.2658412E+01  0.3048210E+06  0.7546895E+00  0.1261811E+00  0.1854964E+01
  0.1410000E+01  0.2614635E+06 -0.6851510E+00  0.9380079E-01  0.1381588E+01  0.1882575E+06 -0.2503528E+01  0.2638326E+00 -0.1272153E+01  0.2133923E+06  0.2287956E+00  0.9937104E-01  0.2639205E+01  0.2959892E+06  0.9780498E+00  0.4135637E-01  0.1139261E+01  0.1827658E+06 -0.1246601E+01  0.3989722E-01 -0.1286571E+01  0.2838198E+06  0.1684923E+01  0.2244331E+00  0.1234737E+01
  0.1440000E+01  0.3119299E+06 -0.1051838E+01  0.2855791E+00 -0.2326062E+00  0.1751318E+06 -0.2631706E+01  0.3614416E+00  0.2906729E+01  0.1683057E+06 -0.3248737E+00  0.7634089E-01 -0.3104743E+01  0.2933047E+06  0.1850247E+01  0.2675925E-01  0.1350747E+00  0.1758523E+06 -0.3494959E+00  0.1846141E+00  0.2507756E+01  0.2820658E+06  0.2566940E+01  0.5370513E-01  0.2374711E+01
  0.1470000E+01  0.4009839E+06 -0.8317538E+00  0.5805464E-01  0.1068089E+01  0.1926896E+06 -0.2665783E+01  0.1598082E+00  0.2821174E+01  0.2836063E+06 -0.2707350E+00  0.1444464E+00 -0.3367774E+00  0.2928007E+06  0.2828218E+01  0.7491421E-01  0.2028552E+01  0.1666140E+06  0.5383491E+00  0.7848652E-01  0.1171608E+01  0.2995517E+06 -0.2753840E+01  0.1760862E+00 -0.2511747E+01
  0.1500000E+01  0.3377782E+06 -0.4961277E+00  0.1234272E+00 -0.5819337E+00  0.1937337E+06 -0.2554317E+01  0.1237124E+00  0.1348435E+01  0.3045996E+06  0.2000580E+00  0.1436837E+00 -0.9109825E+00  0.2668554E+06 -0.2435475E+01  0.1156336E+00 -0.2987183E+01  0.1617859E+06  0.1429207E+01  0.1164848E+00 -0.4654051E+00  0.3007643E+06 -0.1705561E+01  0.5805109E-01  0.2521435E+01
  0.1530000E+01  0.1983928E+06 -0.6071194E+00  0.4594236E+00 -0.5222219E+00  0.1679015E+06 -0.2504224E+01  0.5847925E+00  0.2588630E+01  0.1978444E+06  0.5806425E+00  0.1417885E+00  0.2583552E+01  0.2315526E+06 -0.1479648E+01  0.4872745E-01 -0.2254554E+01  0.1591797E+06  0.2363427E+01  0.1188882E+00  0.1481132E+01  0.2794904E+06 -0.6749854E+00  0.4493653E-01  0.2889558E+01
  0.1560000E+01  0.2731978E+06 -0.1107201E+01  0.4063544E-01  0.2963154E+01  0.1541564E+06 -0.2642420E+01  0.1681181E+00 -0.2167046E+01  0.1263899E+06 -0.1530327E+00  0.1683875E+00  0.2598458E+01  0.2191129E+06 -0.5667083E+00  0.1001643E+00 -0.2817599E+00  0.1522028E+06 -0.2948375E+01  0.7253259E-01 -0.3056162E+01  0.2648852E+06  0.2798751E+00  0.3730992E+00  0.1972704E+00
  0.1590000E+01  0.3652848E+06 -0.6841799E+00  0.5782387E-01 -0.3048312E+01  0.1744076E+06 -0.2656009E+01  0.1068990E+00  0.1976761E+01  0.2809930E+06 -0.1926875E-01  0.1906168E+00 -0.3318935E+00  0.2195385E+06  0.4934836E+00  0.1046704E+00  0.1558126E+00  0.1414773E+06 -0.1986074E+01  0.2478269E-01  0.1116781E+01  0.2812579E+06  0.1289562E+01  0.2277653E+00  0.1162436E+01
  0.1620000E+01  0.2175068E+06 -0.1837875E+00  0.2074439E+00 -0.7891055E+00  0.1649359E+06 -0.2490018E+01  0.2378233E+00  0.2044856E+01  0.2783752E+06  0.7041671E+00  0.2038155E+00  0.9494190E+00  0.1860033E+06  0.1636535E+01  0.1128919E+00  0.4664874E+00  0.1368203E+06 -0.1022086E+01  0.2267524E+00  0.2733552E+01  0.2807075E+06  0.2438054E+01  0.2544024E+00 -0.8458970E+00
  0.1650000E+01  0.1446964E+06 -0.1390128E+01  0.2532188E+00 -0.3052886E+01  0.1307225E+06 -0.2539706E+01  0.5785737E+00 -0.1385616E+00  0.8484644E+05  0.1224542E+01  0.1688671E+00 -0.3028038E+01  0.1444356E+06  0.2603384E+01  0.5601948E-01 -0.5215787E-01  0.1337605E+06  0.2005634E-02  0.2813558E+00  0.2893879E+01  0.2464730E+06 -0.2742771E+01  0.5832316E-01  0.1374417E+01
  0.1680000E+01  0.3467728E+06 -0.9254543E+00  0.2382147E+00  0.2472499E+01  0.1454618E+06 -0.2714674E+01  0.4232017E+00 -0.2557328E+00  0.2104488E+06 -0.2504810E+00  0.2331976E+00 -0.1496748E+01  0.1477884E+06 -0.2715221E+01  0.1511022E+00  0.2579017E+01  0.1233734E+06  0.1051574E+01  0.1356559E+00 -0.1770925E+01  0.2403499E+06 -0.1771080E+01  0.1652324E+00 -0.4003285E+00
  0.1710000E+01  0.2311899E+06 -0.5561084E-01  0.2197929E+00 -0.6240308E+00  0.1509344E+06 -0.2517294E+01  0.1850245E+00  0.2820199E+01  0.3011801E+06  0.7285606E+00  0.4997857E+00  0.6132579E+00  0.1338741E+06 -0.1396239E+01  0.1147833E+00 -0.3058753E+01  0.1158085E+06  0.2051275E+01  0.2195289E+00 -0.5790360E+00  0.2616730E+06 -0.5954133E+00  0.8906435E-01  0.4510697E+00
  0.1740000E+01  0.8678027E+05 -0.1936392E+01  0.2792146E+00  0.2976819E+01  0.1135388E+06 -0.2492264E+01  0.6348245E+00 -0.2743587E+00  0.1365361E+06  0.1786137E+01  0.2748640E+00 -0.2944424E+01  0.8256351E+05 -0.1895979E+00  0.1810869E+00 -0.1360317E+01  0.1136439E+06  0.3108852E+01  0.1605816E+00  0.1252287E+01  0.2342531E+06  0.6557609E+00  0.2969774E+00 -0.2051077E+01
  0.1770000E+01  0.3220330E+06 -0.1069377E+01  0.1186257E+00  0.7984337E+00  0.1206749E+06 -0.2739194E+01  0.1712500E+00  0.4964282E+00  0.1600482E+06 -0.4178151E+00  0.4241239E+00  0.2217991E+01  0.7088496E+05  0.5942650E+00  0.2204687E+00 -0.3900323E+00  0.1047670E+06 -0.2048588E+01  0.1386320E+00  0.1633179E+01  0.2045447E+06  0.1696262E+01  0.5731575E-01  0.1616048E+01
  0.1800000E+01  0.2003647E+06  0.6661761E-01  0.2885502E+00  0.4755670E+00  0.1307403E+06 -0.2528274E+01  0.2100514E+00 -0.2474448E+01  0.2871803E+06  0.8441401E+00  0.4661573E+00  0.1078898E+01  0.7236080E+05  0.2154419E+01  0.2626577E+00  0.8766204E+00  0.9542189E+05 -0.9900797E+00  0.2316202E+00 -0.2963733E+01  0.2310029E+06  0.2869227E+01  0.1828886E+00  0.2185459E+01
  0.1830000E+01  0.1078505E+06 -0.2340892E+01  0.2243547E+00 -0.2245032E+01  0.9559773E+05 -0.2481193E+01  0.4786035E+00  0.2459409E+00  0.1479507E+06  0.2113727E+01  0.1574256E-01 -0.4953830E+00  0.3878650E+05 -0.2181173E+01  0.4091879E+00  0.2208483E+01  0.9307802E+05  0.1229925E+00  0.3997913E+00 -0.1222980E+01  0.2159189E+06 -0.2054690E+01  0.2015806E+00  0.1001390E+01
  0.1860000E+01  0.2918536E+06 -0.1029611E+01  0.2675826E+00 -0.8892720E+00  0.1019243E+06 -0.2745262E+01  0.1632021E+00  0.1650659E+01  0.1434059E+06 -0.3446846E+00  0.2313197E+00 -0.2423917E+01  0.1032988E+05 -0.7604767E+00  0.2767834E+00 -0.2884591E+01  0.8582329E+05  0.1288432E+01  0.2893946E+00 -0.5433771E+00  0.1808152E+06 -0.9058163E+00  0.1483606E+00  0.8525422E+00
  0.1890000E+01  0.1322230E+06  0.3488944E+00  0.1434757E+00  0.2668236E+01  0.1063634E+06 -0.2512946E+01  0.4962626E+00 -0.4049833E+00  0.2570366E+06  0.1110418E+01  0.3103804E+00 -0.2770744E+00  0.3763924E+05  0.6476269E+00  0.1970666E+00 -0.1971509E+01  0.7816621E+05  0.2399353E+01  0.2106629E+00 -0.2001072E+00  0.2040585E+06  0.3047971E+00  0.4018776E+00  0.2470672E+00
  0.1920000E+01  0.1517841E+06 -0.2244524E+01  0.6121702E+00 -0.2358343E+01  0.7659256E+05 -0.2513524E+01  0.9386001E+00  0.5718739E+00  0.1258930E+06  0.2533948E+01  0.5504811E+00 -0.1323907E+01  0.6697765E+05  0.2623900E+01  0.2332397E+00  0.2980367E+01  0.7480850E+05 -0.2693420E+01  0.4807340E+00 -0.5951449E-01  0.1960572E+06  0.1736656E+01  0.1072266E+00 -0.3141593E+01
  0.1950000E+01  0.2330293E+06 -0.7933273E+00  0.7242941E-01  0.1613533E+01  0.8787480E+05 -0.2719740E+01  0.2417100E+00 -0.9349768E+00  0.1428470E+06  0.7532816E-01  0.3585229E+00 -0.2618823E+01  0.6426944E+05 -0.2151421E+01  0.4354092E+00 -0.2109083E+01  0.6751454E+05 -0.1485511E+01  0.6382567E+00  0.1015538E+01  0.1699488E+06  0.2965483E+01  0.3242880E+00  0.2885754E+01
  0.1980000E+01  0.5833548E+05  0.1243848E+01  0.5676839E+00  0.2986418E+01  0.8293248E+05 -0.2470900E+01  0.7835348E+00 -0.1091072E+00  0.2234952E+06  0.1534277E+01  0.5249364E+00  0.1768060E+00  0.8924171E+05 -0.1111608E+01  0.4485146E+00 -0.9690779E+00  0.6188227E+05 -0.3194898E+00  0.6671374E+00  0.2164407E+01  0.1916599E+06 -0.2014718E+01  0.2008534E+00  0.6020444E-01
  0.2010000E+01  0.1753572E+06 -0.1929390E+01  0.2276524E+00 -0.2010040E+01  0.6068034E+05 -0.2620388E+01  0.2734302E+00 -0.1282227E+00  0.8199973E+05  0.3081709E+01  0.7953069E+00 -0.2057487E+01  0.1195806E+06  0.3537721E+00  0.8182032E+00  0.3550064E+00  0.5743882E+05  0.9233488E+00  0.1037659E+01 -0.2841416E+01  0.1845281E+06 -0.5519168E+00  0.6183795E+00 -0.6028596E+00
  0.2040000E+01  0.1388760E+06 -0.3527822E+00  0.8810912E+00  0.2801050E+01  0.7234484E+05 -0.2669971E+01  0.1223070E+01 -0.5049528E+00  0.1494571E+06  0.7423003E+00  0.5573901E+00 -0.1214849E+01  0.1190306E+06  0.1638794E+01  0.9310786E+00  0.1555818E+01  0.5064149E+05  0.2148143E+01  0.1140605E+01 -0.1797612E+01  0.1762814E+06  0.7171759E+00  0.1101576E+01  0.3057625E+01
  0.2070000E+01  0.8034620E+05  0.2936261E+01  0.8096855E+00 -0.2865538E+01  0.5578162E+05 -0.2500237E+01  0.1000216E+01 -0.1308570E+00  0.1925995E+06  0.2084165E+01  0.5897829E+00 -0.1471234E+01  0.1489073E+06  0.2878178E+01  0.9515051E+00  0.2934842E+01  0.4555040E+05 -0.2962192E+01  0.1047161E+01 -0.4668041E+00  0.1972685E+06  0.2123019E+01  0.1332346E+01  0.1673425E+01
  0.2100000E+01  0.1447712E+06 -0.1500138E+01  0.3463728E+01  0.2950788E+01  0.4706766E+05 -0.2651000E+01  0.4083698E+01 -0.4491193E+00  0.1938320E+05 -0.2776143E+01  0.1289614E+01  0.9630830E+00  0.1578956E+06 -0.1999190E+01  0.2987833E+01 -0.1933994E+01  0.4248459E+05 -0.1596186E+01  0.3091690E+01  0.1040893E+01  0.1867172E+06 -0.2742936E+01  0.5154473E+01 -0.1076311E+00
  0.2130000E+01  0.5443298E+05  0.8762305E+00  0.1144491E+01 -0.8441069E+00  0.6348193E+05 -0.2586948E+01  0.1457584E+01  0.1464099E+01  0.1706198E+06  0.1462304E+01  0.1963867E+01  0.1095543E+01  0.1765272E+06 -0.7204902E+00  0.1593861E+01  0.2297714E+01  0.4178699E+05 -0.2586141E+00  0.1766270E+01 -0.1080244E+01  0.2031900E+06 -0.1360464E+01  0.1380817E+01  0.4978439E+00
  0.2160000E+01  0.1309455E+06 -0.2645817E+01  0.1117852E+01 -0.2764124E+00  0.4222010E+05 -0.2509725E+01  0.1472054E+01  0.2684193E+01  0.1577964E+06  0.2709868E+01  0.6530678E+00 -0.5709251E+00  0.1981808E+06  0.6641677E+00  0.4583720E+00 -0.2533965E+01  0.3610186E+05  0.1031226E+01  0.4999395E+00  0.5356483E+00  0.2136363E+06  0.1077188E+00  0.4163559E+00 -0.4166168E+00
  0.2190000E+01  0.6670762E+05 -0.9165856E+00  0.3313521E+00 -0.2320389E+01  0.4415721E+05 -0.2726623E+01  0.5497496E+00  0.5042174E+00  0.5615345E+05  0.1273724E+01  0.4553127E+00 -0.4494679E+00  0.1943617E+06  0.2012103E+01  0.1769448E+00 -0.1020725E+01  0.3104235E+05  0.2283067E+01  0.1649380E+00  0.2063805E+01  0.2087665E+06  0.1469704E+01  0.3647966E+00  0.2230201E+01
  0.2220000E+01  0.1019063E+06  0.2739173E+01  0.1315009E+00  0.1030396E-02  0.4011307E+05 -0.2452005E+01  0.8933795E-01 -0.2234167E+01  0.1922022E+06  0.2218844E+01  0.3270882E+00  0.3347198E+00  0.2188788E+06 -0.2937141E+01  0.2123584E+00  0.1224952E+00  0.2850599E+05 -0.2609632E+01  0.2208805E+00 -0.3032798E+01  0.2360529E+06  0.2898604E+01  0.2252681E+00 -0.3136781E+01
  0.2250000E+01  0.1098150E+06 -0.2069536E+01  0.3116713E+00 -0.6477971E+00  0.3129727E+05 -0.2721654E+01  0.3846439E+00  0.2372984E+01  0.8620401E+05 -0.3104085E+01  0.6109593E+00 -0.9454680E-01  0.2210671E+06 -0.1478610E+01  0.1125763E+00  0.1567137E+01  0.2502584E+05 -0.1231413E+01  0.1170731E+00 -0.1569623E+01  0.2299238E+06 -0.1896595E+01  0.3451003E+00 -0.1898147E+01
  0.2280000E+01  0.5128086E+05  0.2283565E+01  0.2039295E+00 -0.1546569E+01  0.3571555E+05 -0.2561031E+01  0.2170728E+00  0.7853982E+00  0.1411493E+06  0.1955188E+01  0.6126472E+00 -0.9220254E+00  0.2273022E+06 -0.1550620E+00  0.8889301E-01  0.2817367E+01  0.2151588E+05  0.1075445E+00  0.1015678E+00 -0.2591020E+00  0.2461559E+06 -0.5315306E+00  0.3526227E+00  0.6044216E+00
  0.2310000E+01  0.1437189E+06 -0.2744618E+01  0.1097075E+00 -0.8202062E-01  0.2345811E+05 -0.2559415E+01  0.6466891E-01 -0.2883659E+01  0.1733469E+06  0.2964455E+01  0.4821630E+00 -0.8538918E+00  0.2476317E+06  0.1325949E+01  0.3394076E-01 -0.1583259E+01  0.1931350E+05  0.1555899E+01  0.2519145E-01  0.1339265E+01  0.2633019E+06  0.1011174E+01  0.4295778E+00  0.2100690E+01
  0.2340000E+01  0.2651297E+05 -0.2556627E+01  0.1197420E+00 -0.1462642E+01  0.2820636E+05 -0.2684139E+01  0.2375577E+00  0.1326693E+01  0.7163320E+05  0.2251350E+01  0.5406079E+00 -0.6293402E+00  0.2350366E+06  0.2736658E+01  0.4269441E-01 -0.8320214E+00  0.1696877E+05  0.2974523E+01  0.5113910E-01  0.1997200E+01  0.2543745E+06  0.2426912E+01  0.2394676E+00 -0.2871731E+01