VARIABLES="w (rad/s)"  
"abs(F   1   1)" "angle(F   1   1)"
"abs(F   1   2)" "angle(F   1   2)"
"abs(F   1   3)" "angle(F   1   3)"
"abs(F   1   4)" "angle(F   1   4)"
"abs(F   1   5)" "angle(F   1   5)"
"abs(F   1   6)" "angle(F   1   6)"
"abs(F   2   1)" "angle(F   2   1)"
"abs(F   2   2)" "angle(F   2   2)"
"abs(F   2   3)" "angle(F   2   3)"
"abs(F   2   4)" "angle(F   2   4)"
"abs(F   2   5)" "angle(F   2   5)"
"abs(F   2   6)" "angle(F   2   6)"
Zone t="Excitation force - beta =   0.000 deg",I=   500,F=POINT
  0.3000000E-01  0.1732931E+05 -0.1570528E+01  0.2215481E-01  0.6708026E-01  0.9799716E+06 -0.4043056E-03  0.7563155E-01  0.7727625E-01  0.2257536E+05 -0.1570539E+01  0.2813642E-01  0.1061458E+00  0.1732981E+05 -0.1356734E+01  0.3507380E+00  0.3125216E+01  0.9799140E+06  0.2141947E+00  0.4155366E+00  0.6385364E-01  0.2257646E+05 -0.1356707E+01  0.7464104E-02  0.5729883E+00
  0.6000000E-01  0.3467766E+05 -0.1570046E+01  0.1079784E-01  0.2566731E+01  0.9777349E+06 -0.1242551E-02  0.1134394E+00  0.3279752E-01  0.4514894E+05 -0.1570049E+01  0.1600442E-01  0.1451222E+00  0.3468563E+05 -0.1142390E+01  0.1228293E+00  0.2975222E+00  0.9773046E+06  0.4284284E+00  0.1481174E+00  0.2765664E+01  0.4516084E+05 -0.1142396E+01  0.9708296E-02  0.2217315E+01
  0.9000000E-01  0.5199857E+05 -0.1570063E+01  0.1023370E-01 -0.1040952E+01  0.9742854E+06 -0.2289793E-02  0.9148368E-01  0.2955170E+01  0.6765796E+05 -0.1570069E+01  0.5742649E-02  0.1015862E+00  0.5203332E+05 -0.9268697E+00  0.2378027E+00 -0.3130342E+01  0.9729814E+06  0.6431713E+00  0.1141558E+00 -0.3649270E+00  0.6770755E+05 -0.9268823E+00  0.3158159E-01 -0.3130344E+01
  0.1200000E+00  0.6937904E+05 -0.1570286E+01  0.1794794E-01  0.2488260E+01  0.9699118E+06 -0.3127278E-02  0.1546094E+00  0.5999268E-01  0.9019480E+05 -0.1570287E+01  0.9722161E-02 -0.2984843E+01  0.6946858E+05 -0.7103276E+00  0.2682547E+00 -0.1926317E+01  0.9672771E+06  0.8587982E+00  0.8620484E-01  0.2181827E+01  0.9032096E+05 -0.7103485E+00  0.2966880E-01 -0.7297250E-01
  0.1500000E+00  0.8678064E+05 -0.1571085E+01  0.1542887E-01  0.5095258E+00  0.9642901E+06 -0.3460844E-02  0.5830480E-01  0.2941170E+01  0.1126552E+06 -0.1571089E+01  0.2735233E-01 -0.3122185E+01  0.8693530E+05 -0.4921873E+00  0.6086177E-01 -0.2191493E+01  0.9601605E+06  0.1075754E+01  0.1184984E+00  0.2444978E+01  0.1128747E+06 -0.4921796E+00  0.2372452E-02 -0.1371383E+01
  0.1800000E+00  0.1043098E+06 -0.1572510E+01  0.3165258E-01 -0.1223142E+00  0.9569916E+06 -0.3147360E-02  0.1695063E+00  0.1525802E+00  0.1351982E+06 -0.1572513E+01  0.3264756E-01  0.3138453E+01  0.1044901E+06 -0.2719582E+00  0.8735428E-01  0.2196776E+01  0.9516874E+06  0.1294447E+01  0.1162746E+00 -0.2340586E+01  0.1354648E+06 -0.2719477E+00  0.2011340E-01 -0.5400449E+00
  0.2100000E+00  0.1220558E+06 -0.1574277E+01  0.1450577E-01  0.1358915E+01  0.9475129E+06 -0.2367719E-02  0.1273750E+00  0.3129581E+01  0.1578990E+06 -0.1574279E+01  0.4826045E-01  0.3044245E+00  0.1221390E+06 -0.4921304E-01  0.4908342E-01  0.1161599E+01  0.9419038E+06  0.1515314E+01  0.3910783E+00 -0.1631126E+01  0.1580593E+06 -0.4920613E-01  0.2916044E-02 -0.1981161E+01
  0.2400000E+00  0.1401332E+06 -0.1575835E+01  0.5921722E-01  0.1917030E+01  0.9354650E+06 -0.1651260E-02  0.4652431E-02 -0.1715612E+01  0.1808830E+06 -0.1575836E+01  0.2214629E-01  0.1626165E+01  0.1399001E+06  0.1764864E+00  0.6709997E-01 -0.2058251E+01  0.9308555E+06  0.1738801E+01  0.1343998E+00 -0.2058933E+01  0.1806608E+06  0.1764904E+00  0.2385916E-01  0.2838757E+01
  0.2700000E+00  0.1586302E+06 -0.1576405E+01  0.3856081E-01  0.1527380E+01  0.9207871E+06 -0.1814461E-02  0.1138614E+00 -0.2896960E+01  0.2042607E+06 -0.1576412E+01  0.6795219E-01  0.4845743E+00  0.1577902E+06  0.4056475E+00  0.2355458E+00 -0.1843373E+01  0.9185969E+06  0.1965366E+01  0.5897299E-01  0.1733685E+01  0.2032922E+06  0.4056441E+00  0.4201313E-01  0.9311503E+00
  0.3000000E+00  0.1775662E+06 -0.1575214E+01  0.1763621E-01  0.2049696E+01  0.9038129E+06 -0.3864201E-02  0.1588205E+00  0.3017872E+01  0.2279931E+06 -0.1575221E+01  0.3402943E-01  0.1786073E+01  0.1758336E+06  0.6387739E+00  0.9631338E-01 -0.6386785E+00  0.9051220E+06  0.2195534E+01  0.1656110E-01 -0.1000018E+01  0.2259239E+06  0.6387690E+00  0.4985968E-01  0.1380147E+01
  0.3300000E+00  0.1968277E+06 -0.1571701E+01  0.4445831E-01  0.5081662E+00  0.8854758E+06 -0.8606034E-02  0.3458859E-01  0.2896602E+01  0.2519523E+06 -0.1571707E+01  0.5438793E-01  0.1307500E+01  0.1940449E+06  0.8764012E+00  0.6994437E-01 -0.3045802E+01  0.8904989E+06  0.2429788E+01  0.1460717E+00 -0.7336215E-01  0.2485979E+06  0.8763992E+00  0.3034735E-01 -0.3790349E+00
  0.3600000E+00  0.2161623E+06 -0.1565809E+01  0.7202267E-01  0.9337959E+00  0.8670533E+06 -0.1639021E-01  0.6971259E-01 -0.3016035E+01  0.2757545E+06 -0.1565816E+01  0.2887332E-01  0.4628819E+00  0.2124408E+06  0.1119097E+01  0.3390877E+00  0.2740757E+01  0.8747360E+06  0.2668661E+01  0.3075241E+00 -0.4574983E+00  0.2712788E+06  0.1119096E+01  0.2084098E-01 -0.1394400E+01
  0.3900000E+00  0.2352164E+06 -0.1558248E+01  0.4716597E-01  0.1462652E+01  0.8499316E+06 -0.2673752E-01  0.1753905E+00  0.2999492E+01  0.2989441E+06 -0.1558248E+01  0.6787109E-01  0.7561384E+00  0.2310515E+06  0.1367481E+01  0.5722367E-01 -0.1135396E+01  0.8578348E+06  0.2912736E+01  0.1284610E+00 -0.7511380E+00  0.2940009E+06  0.1367471E+01  0.5350320E-01 -0.1517680E+01
  0.4200000E+00  0.2535856E+06 -0.1550460E+01  0.6802257E-01  0.1465041E+01  0.8352086E+06 -0.3805902E-01  0.1361275E+00  0.2856344E+01  0.3210100E+06 -0.1550454E+01  0.3175810E-01  0.1912139E+01  0.2498774E+06  0.1622112E+01  0.2669328E-01 -0.3772454E+00  0.8398801E+06 -0.3120637E+01  0.1186174E+00 -0.1067255E+00  0.3167563E+06  0.1622102E+01  0.1447259E-01  0.6128959E+00
  0.4500000E+00  0.2710592E+06 -0.1544630E+01  0.2478900E-01  0.1793711E+01  0.8229915E+06 -0.4792966E-01  0.1726408E+00  0.3027673E+01  0.3416188E+06 -0.1544618E+01  0.4794542E-01  0.2115667E+01  0.2689625E+06  0.1883653E+01  0.1050556E+00 -0.6196639E+00  0.8208798E+06 -0.2864485E+01  0.4549236E+00 -0.8190577E-01  0.3395269E+06  0.1883645E+01  0.7347998E-01 -0.1735518E+01
  0.4800000E+00  0.2877788E+06 -0.1543206E+01  0.3415884E-01  0.1575335E+01  0.8122050E+06 -0.5371518E-01  0.2057558E+00  0.2923929E+01  0.3609980E+06 -0.1543180E+01  0.4430332E-01  0.1961801E+01  0.2883376E+06  0.2152804E+01  0.1274974E+00 -0.8537272E-01  0.8009631E+06 -0.2601365E+01  0.2268082E+00  0.5190019E+00  0.3623772E+06  0.2152786E+01  0.2977402E-01 -0.9142408E+00
  0.5100000E+00  0.3045028E+06 -0.1548054E+01  0.3423610E-01  0.1547993E+01  0.8004483E+06 -0.5356212E-01  0.1628218E+00  0.2827563E+01  0.3800876E+06 -0.1548015E+01  0.8609475E-01  0.2059628E+01  0.3080682E+06  0.2430335E+01  0.1935097E-01 -0.2757323E+01  0.7802139E+06 -0.2330609E+01  0.1449495E+00  0.1223642E+01  0.3853706E+06  0.2430316E+01  0.5419367E-01  0.5869156E+00
  0.5400000E+00  0.3226106E+06 -0.1559173E+01  0.5138516E-01  0.1873812E+01  0.7846911E+06 -0.4750581E-01  0.1166729E+00 -0.2932796E+01  0.4005264E+06 -0.1559128E+01  0.8246103E-01  0.9049095E+00  0.3281994E+06  0.2717121E+01  0.2931740E-01 -0.1599385E+01  0.7588402E+06 -0.2051345E+01  0.1661724E+00 -0.1374800E+00  0.4084771E+06  0.2717095E+01  0.1483842E+00  0.1979732E+00
  0.5699999E+00  0.3439123E+06 -0.1573514E+01  0.1385674E+00  0.1759175E+01  0.7620054E+06 -0.3783473E-01  0.1433700E+00 -0.2585324E+01  0.4245558E+06 -0.1573474E+01  0.9386443E-01  0.1549616E+01  0.3488462E+06  0.3014213E+01  0.7721882E-01 -0.2755464E+01  0.7369048E+06 -0.1762710E+01  0.1247264E+00  0.9878956E+00  0.4318664E+06  0.3014182E+01  0.3473394E-01 -0.2645657E+01
  0.6000000E+00  0.3697276E+06 -0.1584836E+01  0.2710825E-01  0.2587122E+01  0.7310738E+06 -0.2962095E-01  0.1878543E+00 -0.2965669E+01  0.4537304E+06 -0.1584812E+01  0.5469756E-01  0.2079790E+01  0.3700220E+06 -0.2960423E+01  0.1156459E+00 -0.1777073E+01  0.7145158E+06 -0.1463617E+01  0.6730866E-01  0.1167589E+01  0.4555447E+06 -0.2960460E+01  0.1437038E-01  0.1638806E+01
  0.6299999E+00  0.3999217E+06 -0.1585789E+01  0.1190928E-01  0.3754500E+00  0.6932991E+06 -0.2998556E-01  0.3000355E+00  0.2879110E+01  0.4877160E+06 -0.1585783E+01  0.5982443E-01  0.1804470E+01  0.3917326E+06 -0.2639159E+01  0.2251877E+00  0.1213202E+01  0.6916191E+06 -0.1152901E+01  0.1168897E+00  0.9299694E+00  0.4794418E+06 -0.2639204E+01  0.5394663E-01 -0.3134640E+01
  0.6600000E+00  0.4320313E+06 -0.1571529E+01  0.3138068E-01  0.1054706E+01  0.6537628E+06 -0.4613897E-01  0.1495182E+00 -0.2545640E+01  0.5234039E+06 -0.1571538E+01  0.3900091E-01  0.1576649E+01  0.4138763E+06 -0.2303968E+01  0.1194658E+00 -0.2612842E+01  0.6680818E+06 -0.8294358E+00  0.6355137E-01  0.2106914E+01  0.5034074E+06 -0.2304028E+01  0.2150078E+00  0.1465021E+01
  0.6899999E+00  0.4614041E+06 -0.1542921E+01  0.1341186E+00  0.1575756E+01  0.6204798E+06 -0.8043037E-01  0.1115715E+00  0.1491259E+00  0.5551848E+06 -0.1542923E+01  0.1062528E+00  0.1224409E+01  0.4362540E+06 -0.1953906E+01  0.1005482E+00 -0.2887746E+01  0.6436936E+06 -0.4923913E+00  0.1193133E+00 -0.6723833E+00  0.5272353E+06 -0.1953984E+01  0.1437625E+00  0.1312320E+01
  0.7200000E+00  0.4827598E+06 -0.1507960E+01  0.4054788E-01  0.2758900E+01  0.6007704E+06 -0.1240290E+00  0.1496177E+00 -0.7640755E+00  0.5768049E+06 -0.1507924E+01  0.1154887E+00  0.2425074E+00  0.4586889E+06 -0.1588390E+01  0.1519230E+00  0.2887234E+01  0.6183614E+06 -0.1413252E+00  0.3565720E+00 -0.6691659E-01  0.5507091E+06 -0.1588484E+01  0.3603401E-01  0.2309132E+01
  0.7499999E+00  0.4932977E+06 -0.1481419E+01  0.1243173E+00  0.2145118E+01  0.5949310E+06 -0.1573242E+00  0.1519412E+00 -0.1886238E+00  0.5850259E+06 -0.1481307E+01  0.1179083E+00  0.9241117E+00  0.4812522E+06 -0.1207031E+01  0.4120681E+00 -0.3080390E+01  0.5920417E+06  0.2240622E+00  0.2820502E+00  0.3510643E+00  0.5738072E+06 -0.1207159E+01  0.6902431E-01  0.1787529E+01
  0.7800000E+00  0.4968189E+06 -0.1481300E+01  0.1320761E+00  0.2911428E+01  0.5947027E+06 -0.1624002E+00  0.2888556E+00 -0.3420122E+00  0.5846452E+06 -0.1481091E+01  0.3270755E-01 -0.2190534E+00  0.5044302E+06 -0.8091226E+00  0.3716649E+00 -0.2671401E+01  0.5663832E+06  0.6039533E+00  0.4976504E+00  0.7293676E+00  0.5971544E+06 -0.8092902E+00  0.1342749E+00  0.2580492E+01
  0.8100000E+00  0.5064597E+06 -0.1516435E+01  0.1098757E+00  0.3053778E+01  0.5845869E+06 -0.1377973E+00  0.3327900E+00 -0.2107272E+00  0.5912678E+06 -0.1516147E+01  0.7069027E-01 -0.2703580E+01  0.5289769E+06 -0.3930081E+00  0.1394161E+00 -0.1824370E+01  0.5414851E+06  0.1000238E+01  0.4686684E+00  0.1174209E+01  0.6217035E+06 -0.3932072E+00  0.1323269E+00  0.2508272E+00
  0.8400000E+00  0.5396547E+06 -0.1565560E+01  0.1446360E+00 -0.2036651E+01  0.5533527E+06 -0.9963958E-01  0.2125873E+00  0.1229248E+01  0.6249381E+06 -0.1565270E+01  0.9268045E-01 -0.4912922E+00  0.5555298E+06  0.4460179E-01  0.2311212E+00 -0.1524978E+01  0.5184809E+06  0.1415488E+01  0.9104119E-01  0.2177773E+01  0.6481598E+06  0.4436903E-01  0.1169039E+00 -0.2824993E+01
  0.8700000E+00  0.6006604E+06 -0.1580384E+01  0.3758540E+00 -0.1673944E+01  0.4997475E+06 -0.8201342E-01  0.4369079E+00  0.1434478E+01  0.6897980E+06 -0.1580168E+01  0.1268666E+00 -0.3314243E+00  0.5835644E+06  0.5076976E+00  0.4436284E-01  0.2107742E+00  0.4961248E+06  0.1854222E+01  0.2009303E+00 -0.2197680E+01  0.6757172E+06  0.5074082E+00  0.1658855E+00 -0.3672456E+00
  0.9000000E+00  0.6667458E+06 -0.1532918E+01  0.4174100E+00 -0.1437901E+01  0.4427738E+06 -0.1262118E+00  0.6923535E+00  0.1404862E+01  0.7593349E+06 -0.1532737E+01  0.1909711E-01  0.3435827E+00  0.6103501E+06  0.9982736E+00  0.1446659E-01 -0.1305044E+01  0.4732602E+06  0.2317407E+01  0.1248052E+00  0.2747418E+01  0.7013545E+06  0.9978934E+00  0.6091545E-01  0.2066704E+00
  0.9300000E+00  0.7005735E+06 -0.1444183E+01  0.1967852E+00 -0.1150494E+01  0.4147381E+06 -0.2338815E+00  0.2699740E+00  0.9569348E+00  0.7912550E+06 -0.1443905E+01  0.8004182E-01  0.1389851E+01  0.6329758E+06  0.1513511E+01  0.5969470E-01 -0.2373408E+01  0.4476172E+06  0.2803694E+01  0.1919176E+00  0.2719025E+01  0.7218520E+06  0.1513033E+01  0.2428033E+00 -0.1678308E+01
  0.9600000E+00  0.6815649E+06 -0.1373787E+01  0.2133020E+00  0.1756342E+01  0.4256594E+06 -0.3099661E+00  0.5026000E+00 -0.1575421E+01  0.7634238E+06 -0.1373241E+01  0.7413650E-01  0.2089567E+01  0.6515588E+06  0.2046741E+01  0.1598249E+00  0.1701283E+01  0.4202730E+06 -0.2977807E+01  0.4719218E+00 -0.2588273E+01  0.7375212E+06  0.2046157E+01  0.3097670E+00 -0.8095205E+00
  0.9900000E+00  0.6399456E+06 -0.1395330E+01  0.2921239E+00  0.1721401E+01  0.4407678E+06 -0.2881828E+00  0.5411928E+00 -0.1704403E+01  0.7106611E+06 -0.1394405E+01  0.1803677E+00  0.2447899E+01  0.6715954E+06  0.2595405E+01  0.1582524E+00 -0.2599539E+01  0.3954324E+06 -0.2463526E+01  0.3999465E+00 -0.9581053E-01  0.7545414E+06  0.2594663E+01  0.2953937E+00 -0.1661025E+00
  0.1020000E+01  0.6578332E+06 -0.1505964E+01  0.3891022E-01 -0.1062670E+01  0.4214741E+06 -0.2056544E+00  0.1049436E+00  0.1328508E+01  0.7240596E+06 -0.1504897E+01  0.1557994E+00 -0.1006743E+01  0.6991740E+06 -0.3114731E+01  0.1311416E+00  0.2416785E+01  0.3763281E+06 -0.1927846E+01  0.2278964E+00  0.6429312E+00  0.7797154E+06 -0.3115664E+01  0.1551533E+00  0.2579117E+01
  0.1050000E+01  0.7690966E+06 -0.1540966E+01  0.8414006E+00 -0.1372371E+01  0.3592449E+06 -0.1567353E+00  0.1241870E+01  0.1542542E+01  0.8393529E+06 -0.1540030E+01  0.1223929E+00  0.2542149E+00  0.7311813E+06 -0.2502060E+01  0.1379743E-01  0.9441055E+00  0.3605414E+06 -0.1355265E+01  0.2134251E+00  0.1704236E+00  0.8095734E+06 -0.2503161E+01  0.2156298E+00  0.8783014E+00
  0.1080000E+01  0.8681975E+06 -0.1426122E+01  0.6026208E+00 -0.1188215E+01  0.2988339E+06 -0.2724113E+00  0.9328772E+00  0.1955309E+01  0.9400103E+06 -0.1425140E+01  0.1629013E+00  0.1078080E+00  0.7517428E+06 -0.1848690E+01  0.2510388E+00 -0.1926103E+01  0.3413053E+06 -0.7428696E+00  0.3518524E+00  0.1956627E+01  0.8266343E+06 -0.1849978E+01  0.2030015E+00  0.9990252E+00
  0.1110000E+01  0.8408597E+06 -0.1278982E+01  0.6787373E-01 -0.1463641E+01  0.3036615E+06 -0.4508313E+00  0.3983974E-01  0.5655634E+00  0.9034290E+06 -0.1277579E+01  0.9599262E-01 -0.1831110E+00  0.7524566E+06 -0.1180038E+01  0.3320182E-01  0.9864570E+00  0.3150204E+06 -0.1164472E+00  0.2239685E+00 -0.3036151E+01  0.8220121E+06 -0.1181617E+01  0.2091632E+00  0.1604708E+01
  0.1140000E+01  0.7296908E+06 -0.1273640E+01  0.3673591E+00  0.2220237E+01  0.3324356E+06 -0.4407874E+00  0.5410277E+00 -0.1086064E+01  0.7777269E+06 -0.1271497E+01  0.3773788E+00  0.3073581E+01  0.7522185E+06 -0.5151345E+00  0.1888739E+00  0.1138697E+00  0.2907169E+06  0.5046183E+00  0.2660018E+00 -0.1985873E+01  0.8164899E+06 -0.5171568E+00  0.1764318E+00  0.2020068E+01
  0.1170000E+01  0.7294234E+06 -0.1444081E+01  0.8951856E-01 -0.4439037E+00  0.3183144E+06 -0.3170207E+00  0.1179011E+00 -0.1219172E+01  0.7709409E+06 -0.1441523E+01  0.5157990E-01 -0.5180702E+00  0.7720086E+06  0.1683543E+00  0.8909861E-01  0.1896721E+00  0.2769496E+06  0.1141470E+01  0.3776247E+00 -0.2350471E+01  0.8330087E+06  0.1659231E+00  0.1860176E+00  0.3006246E+01
  0.1200000E+01  0.8891114E+06 -0.1460156E+01  0.6168600E+00 -0.9380355E+00  0.2537904E+06 -0.2734306E+00  0.9566912E+00  0.2080882E+01  0.9326428E+06 -0.1457767E+01  0.4303186E+00 -0.6710749E+00  0.7984461E+06  0.9073380E+00  0.1455810E+00  0.1504758E+01  0.2668015E+06  0.1834502E+01  0.2974062E+00 -0.1511020E+01  0.8568394E+06  0.9046060E+00  0.2101594E+00 -0.2274370E+01
  0.1230000E+01  0.9513434E+06 -0.1278574E+01  0.1691083E+00 -0.1086247E+01  0.2160645E+06 -0.4957941E+00  0.4369664E+00  0.2567464E+01  0.9912906E+06 -0.1275890E+01  0.2169442E+00 -0.9010336E+00  0.7926832E+06  0.1686933E+01  0.5165042E-01  0.1954581E+01  0.2479906E+06  0.2569106E+01  0.1300227E+00  0.1869500E+01  0.8464156E+06  0.1683816E+01  0.7457877E-01 -0.4279716E+00
  0.1260000E+01  0.8189016E+06 -0.1169348E+01  0.3502247E+00  0.2588156E+01  0.2436082E+06 -0.6078607E+00  0.2258486E+00 -0.1460169E+01  0.8477045E+06 -0.1165779E+01  0.3199463E+00  0.3011641E+01  0.7641806E+06  0.2450090E+01  0.1407838E+00 -0.2829447E+01  0.2245395E+06 -0.2994695E+01  0.1861471E+00  0.2026874E+01  0.8122618E+06  0.2446325E+01  0.3212061E+00 -0.1859927E+01
  0.1290000E+01  0.7268019E+06 -0.1319332E+01  0.3090537E+00  0.2020973E+01  0.2493052E+06 -0.4959058E+00  0.2302785E+00 -0.2889062E+00  0.7468790E+06 -0.1314731E+01  0.2719671E+00  0.2762378E+01  0.7587592E+06 -0.3079332E+01  0.2071901E+00 -0.1834756E+01  0.2097900E+06 -0.2285807E+01  0.2664632E+00  0.1527991E+01  0.8032588E+06 -0.3083804E+01  0.1244882E+00 -0.1703505E+01
  0.1320000E+01  0.8567388E+06 -0.1417944E+01  0.2611031E+00 -0.8911949E+00  0.2046451E+06 -0.4068605E+00  0.2696172E+00  0.2103034E+01  0.8742414E+06 -0.1413477E+01  0.3523124E-01 -0.2678880E+00  0.7748007E+06 -0.2275784E+01  0.1348067E+00 -0.2209922E+01  0.2020622E+06 -0.1526667E+01  0.2042413E+00 -0.1241815E+00  0.8174138E+06 -0.2280811E+01  0.7924099E-01  0.6478887E+00
  0.1350000E+01  0.9381124E+06 -0.1262208E+01  0.2516971E+00 -0.1001753E+01  0.1667598E+06 -0.5952638E+00  0.3232755E+00  0.1690135E+01  0.9518716E+06 -0.1257646E+01  0.4670520E+00 -0.2700438E+00  0.7635631E+06 -0.1420076E+01  0.4365855E-01 -0.3519721E+00  0.1892688E+06 -0.7106484E+00  0.8736455E-02  0.2237353E+01  0.8032001E+06 -0.1425645E+01  0.2070515E+00  0.8009695E+00
  0.1380000E+01  0.8138316E+06 -0.1151914E+01  0.2537760E+00  0.2524416E+01  0.1822957E+06 -0.7357429E+00  0.2716707E+00 -0.4490161E+00  0.8214682E+06 -0.1146350E+01  0.8174237E-01  0.3116337E+01  0.7243998E+06 -0.5790779E+00  0.2871392E-01  0.2680699E+01  0.1704780E+06  0.9415392E-01  0.6520740E-01 -0.2765788E+01  0.7603832E+06 -0.5853264E+00  0.1188848E+00 -0.2800508E+01
  0.1410000E+01  0.7197811E+06 -0.1285672E+01  0.1903277E+00  0.1499207E+01  0.1860156E+06 -0.6470320E+00  0.1822830E+00 -0.1135328E+01  0.7221572E+06 -0.1278875E+01  0.1782570E+00  0.2735399E+01  0.7047054E+06  0.2455956E+00  0.1083520E+00  0.1400185E+01  0.1583954E+06  0.8832150E+00  0.1210088E+00  0.1563079E+01  0.7387194E+06  0.2386528E+00  0.2169572E+00  0.1354002E+01
  0.1440000E+01  0.8152726E+06 -0.1379874E+01  0.2876072E+00  0.1665913E+00  0.1551717E+06 -0.5833960E+00  0.3900862E+00  0.2652970E+01  0.8130101E+06 -0.1373328E+01  0.1235845E+00  0.1029917E+00  0.7056426E+06  0.1110473E+01  0.9831972E-01  0.4908636E-01  0.1516226E+06  0.1713448E+01  0.1669006E+00 -0.3016697E+01  0.7390332E+06  0.1102927E+01  0.2432352E+00  0.2003089E+01
  0.1470000E+01  0.8720934E+06 -0.1255909E+01  0.3455777E-01  0.8902209E+00  0.1291487E+06 -0.7524409E+00  0.1302059E+00 -0.3126027E+01  0.8657119E+06 -0.1249638E+01  0.3308329E+00 -0.1256057E+00  0.6893870E+06  0.2023094E+01  0.6681336E-01  0.1760510E+01  0.1419253E+06  0.2592370E+01  0.2672022E+00  0.2919381E+01  0.7217857E+06  0.2014963E+01  0.2102143E+00 -0.2352930E+01
  0.1500000E+01  0.7565139E+06 -0.1167273E+01  0.9936053E-01 -0.4032081E+00  0.1388064E+06 -0.8841189E+00  0.2480511E+00  0.1406927E+01  0.7479388E+06 -0.1160229E+01  0.3691017E+00 -0.2990278E+00  0.6500358E+06  0.2929985E+01  0.1851592E+00 -0.2422235E+01  0.1283577E+06 -0.2813216E+01  0.1592277E+00 -0.3086588E+00  0.6809481E+06  0.2921247E+01  0.1696710E+00 -0.9353351E+00
  0.1530000E+01  0.6692588E+06 -0.1324863E+01  0.5145842E+00 -0.6923103E+00  0.1403481E+06 -0.7922143E+00  0.5733529E+00  0.2614193E+01  0.6582082E+06 -0.1316754E+01  0.9406298E-01  0.2232233E+01  0.6237434E+06 -0.2466419E+01  0.1758089E-01  0.2941985E+01  0.1181070E+06 -0.1952212E+01  0.5177491E-01 -0.1261236E+01  0.6544679E+06 -0.2475509E+01  0.1331561E+00 -0.2979351E+01
  0.1560000E+01  0.7896146E+06 -0.1415457E+01  0.7706296E-01  0.2202116E+01  0.1109956E+06 -0.7272823E+00  0.1063152E+00 -0.3051100E+01  0.7729190E+06 -0.1408472E+01  0.4300421E+00  0.2480492E+00  0.6218836E+06 -0.1544801E+01  0.1315638E+00 -0.3594838E+00  0.1128506E+06 -0.1051367E+01  0.2101003E+00  0.3040733E+01  0.6541183E+06 -0.1553675E+01  0.3768512E+00 -0.2705094E+00
  0.1590000E+01  0.8159231E+06 -0.1216494E+01  0.1584409E+00  0.1991119E+01  0.9517641E+05 -0.1026048E+01  0.1195697E+00  0.1922918E+01  0.7965489E+06 -0.1210344E+01  0.2686698E+00 -0.2273337E+00  0.6019329E+06 -0.5620333E+00  0.3855263E-01  0.1104201E+01  0.1051652E+06 -0.8612755E-01  0.3413701E-01  0.6110907E+00  0.6347999E+06 -0.5707132E+00  0.2430733E+00  0.1071780E+01
  0.1620000E+01  0.6102534E+06 -0.1212779E+01  0.1498429E+00 -0.3302510E+00  0.1157696E+06 -0.1043138E+01  0.1910612E+00  0.2193908E+01  0.5939484E+06 -0.1205517E+01  0.1861983E+00  0.2077319E+01  0.5551599E+06  0.3915620E+00  0.1049399E+00  0.3010787E+00  0.9385299E+05  0.8490943E+00  0.2104767E+00  0.2912179E+01  0.5875853E+06  0.3829311E+00  0.1910270E+00 -0.1630990E+01
  0.1650000E+01  0.6709005E+06 -0.1532032E+01  0.3079802E+00 -0.2531774E+01  0.1005960E+06 -0.8267928E+00  0.5732445E+00  0.2744424E-01  0.6494334E+06 -0.1526443E+01  0.4529690E-01 -0.1349218E+01  0.5433111E+06  0.1318614E+01  0.4406231E-01  0.1925533E+00  0.8837370E+05  0.1762729E+01  0.3062827E+00  0.2667654E+01  0.5778294E+06  0.1310936E+01  0.2430572E+00 -0.1482680E+01
  0.1680000E+01  0.8268877E+06 -0.1315803E+01  0.3330045E+00  0.2172290E+01  0.6750973E+05 -0.1102159E+01  0.4216307E+00 -0.1735384E+00  0.7994350E+06 -0.1312915E+01  0.2439744E+00 -0.1872909E+01  0.5459885E+06  0.2341083E+01  0.7601025E-01  0.1834092E+01  0.8554259E+05  0.2775781E+01  0.1509800E+00 -0.1329895E+01  0.5835238E+06  0.2335321E+01  0.3005401E+00 -0.5313583E+00
  0.1710000E+01  0.5779493E+06 -0.1159935E+01  0.1822425E+00 -0.1708497E+00  0.9257387E+05 -0.1263077E+01  0.1920310E+00  0.2876363E+01  0.5583813E+06 -0.1156604E+01  0.3031902E+00  0.1268188E+01  0.4973324E+06 -0.2912717E+01  0.1465984E+00 -0.2414312E+01  0.7432518E+05 -0.2489194E+01  0.2707750E+00 -0.8564264E+00  0.5344473E+06 -0.2916774E+01  0.1508406E+00  0.2647254E+00
  0.1740000E+01  0.5915876E+06 -0.1623263E+01  0.3160832E+00  0.2649687E+01  0.8391887E+05 -0.9580459E+00  0.6371407E+00 -0.3369342E+00  0.5685582E+06 -0.1622133E+01  0.1593894E+00 -0.2823121E+01  0.4762556E+06 -0.1961335E+01  0.1606265E+00 -0.1446651E+01  0.6773072E+05 -0.1540474E+01  0.1943192E+00  0.1318130E+01  0.5153476E+06 -0.1962494E+01  0.1848256E+00 -0.2978663E+01
  0.1770000E+01  0.7988537E+06 -0.1375795E+01  0.1221342E+00  0.8555609E+00  0.5003801E+05 -0.1235986E+01  0.1938861E+00  0.7431533E+00  0.7683706E+06 -0.1379249E+01  0.5524758E+00  0.2478533E+01  0.4892740E+06 -0.9058071E+00  0.2012217E+00 -0.2505523E+00  0.6749430E+05 -0.4801478E+00  0.1715139E+00  0.1004179E+01  0.5327304E+06 -0.9026669E+00  0.9712762E-01 -0.9156852E+00
  0.1800000E+01  0.5185616E+06 -0.1175016E+01  0.2862954E+00  0.4384391E+00  0.7590512E+05 -0.1439528E+01  0.1909724E+00 -0.2551407E+01  0.4995087E+06 -0.1178874E+01  0.6669085E+00  0.6517087E+00  0.4451479E+06  0.1805457E+00  0.2641441E+00  0.8830909E+00  0.5845328E+05  0.6161587E+00  0.2255251E+00 -0.3140402E+01  0.4876275E+06  0.1874051E+00  0.1585474E+00  0.9457364E+00
  0.1830000E+01  0.5636776E+06 -0.1704400E+01  0.2787390E+00 -0.2100827E+01  0.6647402E+05 -0.1080494E+01  0.5699445E+00  0.6507650E+00  0.5406827E+06 -0.1712645E+01  0.3548890E+00 -0.3119472E+01  0.4276967E+06  0.1168164E+01  0.4200492E+00  0.2297248E+01  0.5360283E+05  0.1608985E+01  0.4136796E+00 -0.1175081E+01  0.4717753E+06  0.1180298E+01  0.1344471E+00  0.3861396E+00
  0.1860000E+01  0.7353147E+06 -0.1364875E+01  0.3083898E+00 -0.1000963E+01  0.3948530E+05 -0.1486908E+01  0.1939299E+00  0.1640508E+01  0.7078285E+06 -0.1378938E+01  0.5153350E+00 -0.2834052E+01  0.4417464E+06  0.2276992E+01  0.3174162E+00 -0.2825489E+01  0.5188551E+05  0.2715744E+01  0.3375153E+00 -0.4536525E+00  0.4898193E+06  0.2295454E+01  0.4408377E+00  0.1712548E+01
  0.1890000E+01  0.4301881E+06 -0.1277778E+01  0.1312301E+00  0.2861408E+01  0.6259330E+05 -0.1532373E+01  0.4812150E+00 -0.2610722E+00  0.4154227E+06 -0.1292314E+01  0.1816270E+00 -0.5166867E+00  0.4021709E+06 -0.2890278E+01  0.2490331E+00 -0.1898544E+01  0.4417332E+05 -0.2443833E+01  0.2169782E+00  0.1390494E-01  0.4482359E+06 -0.2866247E+01  0.2520973E+00  0.7173563E+00
  0.1920000E+01  0.5700933E+06 -0.1737680E+01  0.6157568E+00 -0.2347217E+01  0.4851549E+05 -0.1188022E+01  0.9118357E+00  0.5496292E+00  0.5498369E+06 -0.1759899E+01  0.5651961E+00 -0.1873881E+01  0.4000239E+06 -0.1846951E+01  0.2068746E+00  0.2968596E+01  0.4238797E+05 -0.1378465E+01  0.4968415E+00 -0.8566476E-01  0.4479906E+06 -0.1816077E+01  0.1201629E+00  0.2556069E+01
  0.1950000E+01  0.6173061E+06 -0.1302796E+01  0.1525662E+00  0.1608691E+01  0.3682966E+05 -0.1785960E+01  0.3160545E+00 -0.1064377E+01  0.5995167E+06 -0.1330907E+01  0.3124583E+00 -0.2522601E+01  0.4044318E+06 -0.6675721E+00  0.4314357E+00 -0.2106346E+01  0.3966959E+05 -0.1976108E+00  0.6272774E+00  0.9967827E+00  0.4542160E+06 -0.6307607E+00  0.4553373E+00  0.2806050E+01
  0.1980000E+01  0.3592790E+06 -0.1518627E+01  0.5646083E+00  0.3042520E+01  0.5154502E+05 -0.1569131E+01  0.7974930E+00 -0.2369304E+00  0.3500736E+06 -0.1547484E+01  0.2615435E+00  0.3492195E+00  0.3752355E+06  0.4599773E+00  0.4501034E+00 -0.9382724E+00  0.3375801E+05  0.9372189E+00  0.6859698E+00  0.2140068E+01  0.4227428E+06  0.5018386E+00  0.1367216E+00  0.1233734E+01
  0.2010000E+01  0.5657153E+06 -0.1679800E+01  0.2354142E+00 -0.1994604E+01  0.3074690E+05 -0.1384391E+01  0.2721783E+00 -0.1089859E-01  0.5538311E+06 -0.1719133E+01  0.1008355E+01 -0.2378732E+01  0.3868504E+06  0.1599361E+01  0.8023102E+00  0.3672459E+00  0.3201607E+05  0.2092695E+01  0.1026397E+01 -0.2833528E+01  0.4366450E+06  0.1645980E+01  0.7773721E+00 -0.8939309E+00
  0.2040000E+01  0.4489410E+06 -0.1276266E+01  0.8965032E+00  0.2757991E+01  0.3511395E+05 -0.1930350E+01  0.1215457E+01 -0.4896735E+00  0.4440185E+06 -0.1320133E+01  0.8586658E+00 -0.6557581E+00  0.3727819E+06  0.2827693E+01  0.9302453E+00  0.1554361E+01  0.2757892E+05 -0.2963265E+01  0.1134918E+01 -0.1795016E+01  0.4215778E+06  0.2877186E+01  0.1213943E+01  0.3071665E+01
  0.2070000E+01  0.3569218E+06 -0.1793000E+01  0.8172730E+00 -0.2834465E+01  0.3341396E+05 -0.1521356E+01  0.9846728E+00  0.5157540E-01  0.3540518E+06 -0.1841240E+01  0.5908220E+00 -0.1469749E+01  0.3633565E+06 -0.2296044E+01  0.9310002E+00  0.2947622E+01  0.2117308E+05 -0.1823309E+01  0.1008966E+01 -0.4707111E+00  0.4118249E+06 -0.2244172E+01  0.1262476E+01  0.1650767E+01
  0.2100000E+01  0.4914637E+06 -0.1549998E+01  0.3496386E+01  0.2906709E+01  0.2218035E+05 -0.1590862E+01  0.4097579E+01 -0.4558270E+00  0.4933507E+06 -0.1607499E+01  0.1121160E+01  0.1235721E+01  0.3654093E+06 -0.1038803E+01  0.3006207E+01 -0.1927270E+01  0.2305397E+05 -0.5856269E+00  0.3088949E+01  0.1039594E+01  0.4151348E+06 -0.9864177E+00  0.5183105E+01 -0.1052342E+00
  0.2130000E+01  0.2892554E+06 -0.1450056E+01  0.1131156E+01 -0.8337237E+00  0.3783994E+05 -0.2058275E+01  0.1548185E+01  0.1474009E+01  0.2936377E+06 -0.1507838E+01  0.1975742E+01  0.1085547E+01  0.3546385E+06  0.1804836E+00  0.1599358E+01  0.2296496E+01  0.2438869E+05  0.5695454E+00  0.1768671E+01 -0.1081751E+01  0.4043844E+06  0.2337376E+00  0.1382285E+01  0.5872526E+00
  0.2160000E+01  0.3903626E+06 -0.1870312E+01  0.1125780E+01 -0.2991381E+00  0.2503715E+05 -0.1660084E+01  0.1479593E+01  0.2678728E+01  0.3993663E+06 -0.1937846E+01  0.6618683E+00 -0.5684151E+00  0.3595049E+06  0.1439705E+01  0.4508274E+00 -0.2500495E+01  0.2053216E+05  0.1840766E+01  0.5046170E+00  0.5363356E+00  0.4112566E+06  0.1492376E+01  0.3477867E+00 -0.1352772E+00
  0.2190000E+01  0.3475120E+06 -0.1453716E+01  0.2405596E+00 -0.2786109E+01  0.2179552E+05 -0.2185754E+01  0.5119929E+00  0.3682261E+00  0.3612357E+06 -0.1525277E+01  0.6993898E+00 -0.2817707E+00  0.3393975E+06  0.2747912E+01  0.1754767E+00 -0.1009846E+01  0.1601775E+05  0.3046157E+01  0.1404795E+00  0.2098490E+01  0.3900912E+06  0.2799418E+01  0.3128822E+00  0.1858316E+01
  0.2220000E+01  0.2517883E+06 -0.1952388E+01  0.1336420E+00 -0.2247744E+00  0.2639345E+05 -0.1828674E+01  0.9114173E-01 -0.2232301E+01  0.2637177E+06 -0.2026325E+01  0.2138757E+00  0.2604302E+01  0.3370238E+06 -0.2282092E+01  0.2371363E+00  0.1244134E+00  0.1607932E+05 -0.1945539E+01  0.2185353E+00 -0.3028254E+01  0.3893663E+06 -0.2231534E+01  0.2145523E+00 -0.3125161E+01
  0.2250000E+01  0.3553019E+06 -0.1719177E+01  0.3097903E+00 -0.6350955E+00  0.1486236E+05 -0.2109162E+01  0.4090669E+00  0.2312251E+01  0.3785850E+06 -0.1800347E+01  0.8748960E+00 -0.5912349E-01  0.3315429E+06 -0.9153226E+00  0.1250079E+00  0.1611454E+01  0.1466443E+05 -0.6304951E+00  0.1249722E+00 -0.1533548E+01  0.3853873E+06 -0.8667116E+00  0.3415640E+00 -0.1978325E+01
  0.2280000E+01  0.2004368E+06 -0.1738892E+01  0.2509511E+00 -0.1551596E+01  0.2288344E+05 -0.2113981E+01  0.2919595E+00  0.1009332E+01  0.2164706E+06 -0.1817816E+01  0.7761264E+00 -0.6808572E+00  0.3115002E+06  0.3721500E+00  0.8413813E-01  0.2860824E+01  0.1244138E+05  0.6289760E+00  0.9526569E-01 -0.2880190E+00  0.3645860E+06  0.4193555E+00  0.3863288E+00  0.8380846E+00
  0.2310000E+01  0.3040097E+06 -0.2021925E+01  0.1298692E+00 -0.5922360E+00  0.1355388E+05 -0.1883087E+01  0.7230793E-01  0.2744442E+01  0.3326986E+06 -0.2109332E+01  0.4770276E+00 -0.8768686E+00  0.3208125E+06  0.1742663E+01  0.2955769E-01 -0.1666819E+01  0.1227468E+05  0.1997945E+01  0.9154125E-02  0.1629437E+01  0.3780287E+06  0.1787905E+01  0.4711104E+00  0.1906035E+01
  0.2340000E+01  0.2156938E+06 -0.1673458E+01  0.1198093E+00 -0.1465777E+01  0.1743004E+05 -0.2345355E+01  0.3080278E+00  0.1367955E+01  0.2403438E+06 -0.1759450E+01  0.6663463E+00 -0.4853862E+00  0.2917722E+06  0.3112566E+01  0.4063791E-01 -0.9724528E+00  0.1141060E+05 -0.2952497E+01  0.4624230E-01  0.2081825E+01  0.3465755E+06 -0.3126976E+01  0.3419434E+00 -0.2747727E+01