VARIABLES="Frequency (rad/s)" "|Fx| (N/m)" "|Fy| (N/m)" "|Fz| (N/m)" "|Cx| (N)" "|Cy| (N)" "|Cz| (N)" "ang(Fx) (°)" "ang(Fy) (°)" "ang(Fz) (°)" "ang(Cx) (°)" "ang(Cy) (°)" "ang(Cz) (°)"
Zone t="Corps  1"
Zone t="Excitation force - beta =   0.000 deg",I=   500,F=POINT
 0.0300  0.173293E+05  0.221548E-01  0.979972E+06  0.756316E-01  0.225754E+05  0.281364E-01 *******    0.35 *******    0.42 *******    0.01
  -89.98    3.84   -0.02    4.43  -89.99    6.08
  -77.74  179.06   12.27    3.66  -77.73   32.83
 0.0600  0.346777E+05  0.107978E-01  0.977735E+06  0.113439E+00  0.451489E+05  0.160044E-01 *******    0.12 *******    0.15 *******    0.01
  -89.96  147.06   -0.07    1.88  -89.96    8.31
  -65.45   17.05   24.55  158.46  -65.45  127.04
 0.0900  0.519986E+05  0.102337E-01  0.974285E+06  0.914837E-01  0.676580E+05  0.574265E-02 *******    0.24 *******    0.11 *******    0.03
  -89.96  -59.64   -0.13  169.32  -89.96    5.82
  -53.11 -179.36   36.85  -20.91  -53.11 -179.36
 0.1200  0.693790E+05  0.179479E-01  0.969912E+06  0.154609E+00  0.901948E+05  0.972216E-02 *******    0.27 *******    0.09 *******    0.03
  -89.97  142.57   -0.18    3.44  -89.97 -171.02
  -40.70 -110.37   49.21  125.01  -40.70   -4.18
 0.1500  0.867806E+05  0.154289E-01  0.964290E+06  0.583048E-01  0.112655E+06  0.273523E-01 *******    0.06 *******    0.12 *******    0.00
  -90.02   29.19   -0.20  168.52  -90.02 -178.89
  -28.20 -125.56   61.64  140.09  -28.20  -78.57
 0.1800  0.104310E+06  0.316526E-01  0.956992E+06  0.169506E+00  0.135198E+06  0.326476E-01 *******    0.09 *******    0.12 *******    0.02
  -90.10   -7.01   -0.18    8.74  -90.10  179.82
  -15.58  125.87   74.17 -134.11  -15.58  -30.94
 0.2100  0.122056E+06  0.145058E-01  0.947513E+06  0.127375E+00  0.157899E+06  0.482605E-01 *******    0.05 *******    0.39 *******    0.00
  -90.20   77.86   -0.14  179.31  -90.20   17.44
   -2.82   66.55   86.82  -93.46   -2.82 -113.51
 0.2400  0.140133E+06  0.592172E-01  0.935465E+06  0.465243E-02  0.180883E+06  0.221463E-01 *******    0.07 *******    0.13 *******    0.02
  -90.29  109.84   -0.09  -98.30  -90.29   93.17
   10.11 -117.93   99.63 -117.97   10.11  162.65
 0.2700  0.158630E+06  0.385608E-01  0.920787E+06  0.113861E+00  0.204261E+06  0.679522E-01 *******    0.24 *******    0.06 *******    0.04
  -90.32   87.51   -0.10 -165.98  -90.32   27.76
   23.24 -105.62  112.61   99.33   23.24   53.35
 0.3000  0.177566E+06  0.176362E-01  0.903813E+06  0.158820E+00  0.227993E+06  0.340294E-01 *******    0.10 *******    0.02 *******    0.05
  -90.25  117.44   -0.22  172.91  -90.25  102.33
   36.60  -36.59  125.79  -57.30   36.60   79.08
 0.3300  0.196828E+06  0.444583E-01  0.885476E+06  0.345886E-01  0.251952E+06  0.543879E-01 *******    0.07 *******    0.15 *******    0.03
  -90.05   29.12   -0.49  165.96  -90.05   74.91
   50.21 -174.51  139.22   -4.20   50.21  -21.72
 0.3600  0.216162E+06  0.720227E-01  0.867053E+06  0.697126E-01  0.275754E+06  0.288733E-01 *******    0.34 *******    0.31 *******    0.02
  -89.71   53.50   -0.94 -172.81  -89.71   26.52
   64.12  157.03  152.90  -26.21   64.12  -79.89
 0.3900  0.235216E+06  0.471660E-01  0.849932E+06  0.175391E+00  0.298944E+06  0.678711E-01 *******    0.06 *******    0.13 *******    0.05
  -89.28   83.80   -1.53  171.86  -89.28   43.32
   78.35  -65.05  166.89  -43.04   78.35  -86.96
 0.4200  0.253586E+06  0.680226E-01  0.835209E+06  0.136128E+00  0.321010E+06  0.317581E-01 *******    0.03 *******    0.12 *******    0.01
  -88.83   83.94   -2.18  163.66  -88.83  109.56
   92.94  -21.61 -178.80   -6.11   92.94   35.12
 0.4500  0.271059E+06  0.247890E-01  0.822992E+06  0.172641E+00  0.341619E+06  0.479454E-01 *******    0.11 *******    0.45 *******    0.07
  -88.50  102.77   -2.75  173.47  -88.50  121.22
  107.93  -35.50 -164.12   -4.69  107.92  -99.44
 0.4800  0.287779E+06  0.341588E-01  0.812205E+06  0.205756E+00  0.360998E+06  0.443033E-01 *******    0.13 *******    0.23 *******    0.03
  -88.42   90.26   -3.08  167.53  -88.42  112.40
  123.35   -4.89 -149.05   29.74  123.35  -52.38
 0.5100  0.304503E+06  0.342361E-01  0.800448E+06  0.162822E+00  0.380088E+06  0.860948E-01 *******    0.02 *******    0.14 *******    0.05
  -88.70   88.69   -3.07  162.01  -88.69  118.01
  139.25 -157.98 -133.53   70.11  139.25   33.63
 0.5400  0.322611E+06  0.513852E-01  0.784691E+06  0.116673E+00  0.400526E+06  0.824610E-01 *******    0.03 *******    0.17 *******    0.15
  -89.33  107.36   -2.72 -168.04  -89.33   51.85
  155.68  -91.64 -117.53   -7.88  155.68   11.34
 0.5700  0.343912E+06  0.138567E+00  0.762005E+06  0.143370E+00  0.424556E+06  0.938644E-01 *******    0.08 *******    0.12 *******    0.03
  -90.16  100.79   -2.17 -148.13  -90.15   88.79
  172.70 -157.88 -101.00   56.60  172.70 -151.58
 0.6000  0.369728E+06  0.271082E-01  0.731074E+06  0.187854E+00  0.453730E+06  0.546976E-01 *******    0.12 *******    0.07 *******    0.01
  -90.80  148.23   -1.70 -169.92  -90.80  119.16
 -169.62 -101.82  -83.86   66.90 -169.62   93.90
 0.6300  0.399922E+06  0.119093E-01  0.693299E+06  0.300035E+00  0.487716E+06  0.598244E-01 *******    0.23 *******    0.12 *******    0.05
  -90.86   21.51   -1.72  164.96  -90.86  103.39
 -151.21   69.51  -66.06   53.28 -151.22 -179.60
 0.6600  0.432031E+06  0.313807E-01  0.653763E+06  0.149518E+00  0.523404E+06  0.390009E-01 *******    0.12 *******    0.06 *******    0.22
  -90.04   60.43   -2.64 -145.85  -90.04   90.34
 -132.01 -149.70  -47.52  120.72 -132.01   83.94
 0.6900  0.461404E+06  0.134119E+00  0.620480E+06  0.111572E+00  0.555185E+06  0.106253E+00 *******    0.10 *******    0.12 *******    0.14
  -88.40   90.28   -4.61    8.54  -88.40   70.15
 -111.95 -165.46  -28.21  -38.52 -111.96   75.19
 0.7200  0.482760E+06  0.405479E-01  0.600770E+06  0.149618E+00  0.576805E+06  0.115489E+00 *******    0.15 *******    0.36 *******    0.04
  -86.40  158.07   -7.11  -43.78  -86.40   13.89
  -91.01  165.43   -8.10   -3.83  -91.01  132.30
 0.7500  0.493298E+06  0.124317E+00  0.594931E+06  0.151941E+00  0.585026E+06  0.117908E+00 *******    0.41 *******    0.28 *******    0.07
  -84.88  122.91   -9.01  -10.81  -84.87   52.95
  -69.16 -176.49   12.84   20.11  -69.17  102.42
 0.7800  0.496819E+06  0.132076E+00  0.594703E+06  0.288856E+00  0.584645E+06  0.327076E-01 *******    0.37 *******    0.50 *******    0.13
  -84.87  166.81   -9.30  -19.60  -84.86  -12.55
  -46.36 -153.06   34.60   41.79  -46.37  147.85
 0.8100  0.506460E+06  0.109876E+00  0.584587E+06  0.332790E+00  0.591268E+06  0.706903E-01 *******    0.14 *******    0.47 *******    0.13
  -86.89  174.97   -7.90  -12.07  -86.87 -154.90
  -22.52 -104.53   57.31   67.28  -22.53   14.37
 0.8400  0.539655E+06  0.144636E+00  0.553353E+06  0.212587E+00  0.624938E+06  0.926805E-01 *******    0.23 *******    0.09 *******    0.12
  -89.70 -116.69   -5.71   70.43  -89.68  -28.15
    2.56  -87.37   81.10  124.78    2.54 -161.86
 0.8700  0.600660E+06  0.375854E+00  0.499748E+06  0.436908E+00  0.689798E+06  0.126867E+00 *******    0.04 *******    0.20 *******    0.17
  -90.55  -95.91   -4.70   82.19  -90.54  -18.99
   29.09   12.08  106.24 -125.92   29.07  -21.04
 0.9000  0.666746E+06  0.417410E+00  0.442774E+06  0.692354E+00  0.759335E+06  0.190971E-01 *******    0.01 *******    0.12 *******    0.06
  -87.83  -82.39   -7.23   80.49  -87.82   19.69
   57.20  -74.77  132.78  157.42   57.18   11.84
 0.9300  0.700574E+06  0.196785E+00  0.414738E+06  0.269974E+00  0.791255E+06  0.800418E-01 *******    0.06 *******    0.19 *******    0.24
  -82.75  -65.92  -13.40   54.83  -82.73   79.63
   86.72 -135.99  160.64  155.79   86.69  -96.16
 0.9600  0.681565E+06  0.213302E+00  0.425659E+06  0.502600E+00  0.763424E+06  0.741365E-01 *******    0.16 *******    0.47 *******    0.31
  -78.71  100.63  -17.76  -90.26  -78.68  119.72
  117.27   97.48 -170.62 -148.30  117.24  -46.38
 0.9900  0.639946E+06  0.292124E+00  0.440768E+06  0.541193E+00  0.710661E+06  0.180368E+00 *******    0.16 *******    0.40 *******    0.30
  -79.95   98.63  -16.51  -97.66  -79.89  140.25
  148.71 -148.94 -141.15   -5.49  148.66   -9.52
 1.0200  0.657833E+06  0.389102E-01  0.421474E+06  0.104944E+00  0.724060E+06  0.155799E+00 *******    0.13 *******    0.23 *******    0.16
  -86.29  -60.89  -11.78   76.12  -86.22  -57.68
 -178.46  138.47 -110.46   36.84 -178.51  147.77
 1.0500  0.769097E+06  0.841401E+00  0.359245E+06  0.124187E+01  0.839353E+06  0.122393E+00 *******    0.01 *******    0.21 *******    0.22
  -88.29  -78.63   -8.98   88.38  -88.24   14.57
 -143.36   54.09  -77.65    9.76 -143.42   50.32
 1.0800  0.868198E+06  0.602621E+00  0.298834E+06  0.932877E+00  0.940010E+06  0.162901E+00 *******    0.25 *******    0.35 *******    0.20
  -81.71  -68.08  -15.61  112.03  -81.65    6.18
 -105.92 -110.36  -42.56  112.11 -106.00   57.24
 1.1100  0.840860E+06  0.678737E-01  0.303662E+06  0.398397E-01  0.903429E+06  0.959926E-01 *******    0.03 *******    0.22 *******    0.21
  -73.28  -83.86  -25.83   32.40  -73.20  -10.49
  -67.61   56.52   -6.67 -173.96  -67.70   91.94
 1.1400  0.729691E+06  0.367359E+00  0.332436E+06  0.541028E+00  0.777727E+06  0.377379E+00 *******    0.19 *******    0.27 *******    0.18
  -72.97  127.21  -25.26  -62.23  -72.85  176.10
  -29.52    6.52   28.91 -113.78  -29.63  115.74
 1.1700  0.729423E+06  0.895186E-01  0.318314E+06  0.117901E+00  0.770941E+06  0.515799E-01 *******    0.09 *******    0.38 *******    0.19
  -82.74  -25.43  -18.16  -69.85  -82.59  -29.68
    9.65   10.87   65.40 -134.67    9.51  172.25
 1.2000  0.889111E+06  0.616860E+00  0.253790E+06  0.956691E+00  0.932643E+06  0.430319E+00 *******    0.15 *******    0.30 *******    0.21
  -83.66  -53.75  -15.67  119.23  -83.52  -38.45
   51.99   86.22  105.11  -86.58   51.83 -130.31
 1.2300  0.951343E+06  0.169108E+00  0.216065E+06  0.436966E+00  0.991291E+06  0.216944E+00 *******    0.05 *******    0.13 *******    0.07
  -73.26  -62.24  -28.41  147.10  -73.10  -51.63
   96.65  111.99  147.20  107.11   96.48  -24.52
 1.2600  0.818902E+06  0.350225E+00  0.243608E+06  0.225849E+00  0.847704E+06  0.319946E+00 *******    0.14 *******    0.19 *******    0.32
  -67.00  148.29  -34.83  -83.66  -66.79  172.55
  140.38 -162.12 -171.58  116.13  140.16 -106.57
 1.2900  0.726802E+06  0.309054E+00  0.249305E+06  0.230279E+00  0.746879E+06  0.271967E+00 *******    0.21 *******    0.27 *******    0.12
  -75.59  115.79  -28.41  -16.55  -75.33  158.27
 -176.43 -105.12 -130.97   87.55 -176.69  -97.60
 1.3200  0.856739E+06  0.261103E+00  0.204645E+06  0.269617E+00  0.874241E+06  0.352312E-01 *******    0.13 *******    0.20 *******    0.08
  -81.24  -51.06  -23.31  120.49  -80.99  -15.35
 -130.39 -126.62  -87.47   -7.12 -130.68   37.12
 1.3500  0.938112E+06  0.251697E+00  0.166760E+06  0.323276E+00  0.951872E+06  0.467052E+00 *******    0.04 *******    0.01 *******    0.21
  -72.32  -57.40  -34.11   96.84  -72.06  -15.47
  -81.36  -20.17  -40.72  128.19  -81.68   45.89
 1.3800  0.813832E+06  0.253776E+00  0.182296E+06  0.271671E+00  0.821468E+06  0.817424E-01 *******    0.03 *******    0.07 *******    0.12
  -66.00  144.64  -42.15  -25.73  -65.68  178.55
  -33.18  153.59    5.39 -158.47  -33.54 -160.46
 1.4100  0.719781E+06  0.190328E+00  0.186016E+06  0.182283E+00  0.722157E+06  0.178257E+00 *******    0.11 *******    0.12 *******    0.22
  -73.66   85.90  -37.07  -65.05  -73.27  156.73
   14.07   80.22   50.60   89.56   13.67   77.58
 1.4400  0.815273E+06  0.287607E+00  0.155172E+06  0.390086E+00  0.813010E+06  0.123585E+00 *******    0.10 *******    0.17 *******    0.24
  -79.06    9.54  -33.43  152.00  -78.69    5.90
   63.63    2.81   98.17 -172.84   63.19  114.77
 1.4700  0.872093E+06  0.345578E-01  0.129149E+06  0.130206E+00  0.865712E+06  0.330833E+00 *******    0.07 *******    0.27 *******    0.21
  -71.96   51.01  -43.11 -179.11  -71.60   -7.20
  115.91  100.87  148.53  167.27  115.45 -134.81
 1.5000  0.756514E+06  0.993605E-01  0.138806E+06  0.248051E+00  0.747939E+06  0.369102E+00 *******    0.19 *******    0.16 *******    0.17
  -66.88  -23.10  -50.66   80.61  -66.48  -17.13
  167.88 -138.78 -161.19  -17.68  167.38  -53.59
 1.5300  0.669259E+06  0.514584E+00  0.140348E+06  0.573353E+00  0.658208E+06  0.940630E-01 *******    0.02 *******    0.05 *******    0.13
  -75.91  -39.67  -45.39  149.78  -75.44  127.90
 -141.32  168.56 -111.85  -72.26 -141.84 -170.70
 1.5600  0.789615E+06  0.770630E-01  0.110996E+06  0.106315E+00  0.772919E+06  0.430042E+00 *******    0.13 *******    0.21 *******    0.38
  -81.10  126.17  -41.67 -174.82  -80.70   14.21
  -88.51  -20.60  -60.24  174.22  -89.02  -15.50
 1.5900  0.815923E+06  0.158441E+00  0.951764E+05  0.119570E+00  0.796549E+06  0.268670E+00 *******    0.04 *******    0.03 *******    0.24
  -69.70  114.08  -58.79  110.18  -69.35  -13.03
  -32.20   63.27   -4.93   35.01  -32.70   61.41
 1.6200  0.610253E+06  0.149843E+00  0.115770E+06  0.191061E+00  0.593948E+06  0.186198E+00 *******    0.10 *******    0.21 *******    0.19
  -69.49  -18.92  -59.77  125.70  -69.07  119.02
   22.43   17.25   48.65  166.86   21.94  -93.45
 1.6500  0.670900E+06  0.307980E+00  0.100596E+06  0.573244E+00  0.649433E+06  0.452969E-01 *******    0.04 *******    0.31 *******    0.24
  -87.78 -145.06  -47.37    1.57  -87.46  -77.30
   75.55   11.03  101.00  152.85   75.11  -84.95
 1.6800  0.826888E+06  0.333005E+00  0.675097E+05  0.421631E+00  0.799435E+06  0.243974E+00 *******    0.08 *******    0.15 *******    0.30
  -75.39  124.46  -63.15   -9.94  -75.22 -107.31
  134.13  105.09  159.04  -76.20  133.80  -30.44
 1.7100  0.577949E+06  0.182243E+00  0.925739E+05  0.192031E+00  0.558381E+06  0.303190E+00 *******    0.15 *******    0.27 *******    0.15
  -66.46   -9.79  -72.37  164.80  -66.27   72.66
 -166.89 -138.33 -142.62  -49.07 -167.12   15.17
 1.7400  0.591588E+06  0.316083E+00  0.839189E+05  0.637141E+00  0.568558E+06  0.159389E+00 *******    0.16 *******    0.19 *******    0.18
  -93.01  151.82  -54.89  -19.30  -92.94 -161.75
 -112.38  -82.89  -88.26   75.52 -112.44 -170.66
 1.7700  0.798854E+06  0.122134E+00  0.500380E+05  0.193886E+00  0.768371E+06  0.552476E+00 *******    0.20 *******    0.17 *******    0.10
  -78.83   49.02  -70.82   42.58  -79.03  142.01
  -51.90  -14.36  -27.51   57.54  -51.72  -52.46
 1.8000  0.518562E+06  0.286295E+00  0.759051E+05  0.190972E+00  0.499509E+06  0.666909E+00 *******    0.26 *******    0.23 *******    0.16
  -67.32   25.12  -82.48 -146.18  -67.54   37.34
   10.34   50.60   35.30 -179.93   10.74   54.19
 1.8300  0.563678E+06  0.278739E+00  0.664740E+05  0.569945E+00  0.540683E+06  0.354889E+00 *******    0.42 *******    0.41 *******    0.13
  -97.65 -120.37  -61.91   37.29  -98.13 -178.73
   66.93  131.62   92.19  -67.33   67.63   22.12
 1.8600  0.735315E+06  0.308390E+00  0.394853E+05  0.193930E+00  0.707828E+06  0.515335E+00 *******    0.32 *******    0.34 *******    0.44
  -78.20  -57.35  -85.19   93.99  -79.01 -162.38
  130.46 -161.89  155.60  -25.99  131.52   98.12
 1.8900  0.430188E+06  0.131230E+00  0.625933E+05  0.481215E+00  0.415423E+06  0.181627E+00 *******    0.25 *******    0.22 *******    0.25
  -73.21  163.95  -87.80  -14.96  -74.04  -29.60
 -165.60 -108.78 -140.02    0.80 -164.22   41.10
 1.9200  0.570093E+06  0.615757E+00  0.485155E+05  0.911836E+00  0.549837E+06  0.565196E+00 *******    0.21 *******    0.50 *******    0.12
  -99.56 -134.49  -68.07   31.49 -100.83 -107.37
 -105.82  170.09  -78.98   -4.91 -104.05  146.45
 1.9500  0.617306E+06  0.152566E+00  0.368297E+05  0.316054E+00  0.599517E+06  0.312458E+00 *******    0.43 *******    0.63 *******    0.46
  -74.64   92.17 -102.33  -60.98  -76.26 -144.53
  -38.25 -120.68  -11.32   57.11  -36.14  160.77
 1.9800  0.359279E+06  0.564608E+00  0.515450E+05  0.797493E+00  0.350074E+06  0.261544E+00 *******    0.45 *******    0.69 *******    0.14
  -87.01  174.32  -89.90  -13.58  -88.66   20.01
   26.35  -53.76   53.70  122.62   28.75   70.69
 2.0100  0.565715E+06  0.235414E+00  0.307469E+05  0.272178E+00  0.553831E+06  0.100835E+01 *******    0.80 *******    1.03 *******    0.78
  -96.25 -114.28  -79.32   -0.62  -98.50 -136.29
   91.64   21.04  119.90 -162.35   94.31  -51.22
 2.0400  0.448941E+06  0.896503E+00  0.351139E+05  0.121546E+01  0.444019E+06  0.858666E+00 *******    0.93 *******    1.13 *******    1.21
  -73.12  158.02 -110.60  -28.06  -75.64  -37.57
  162.01   89.06 -169.78 -102.85  164.85  175.99
 2.0700  0.356922E+06  0.817273E+00  0.334140E+05  0.984673E+00  0.354052E+06  0.590822E+00 *******    0.93 *******    1.01 *******    1.26
 -102.73 -162.40  -87.17    2.96 -105.50  -84.21
 -131.55  168.89 -104.47  -26.97 -128.58   94.58
 2.1000  0.491464E+06  0.349639E+01  0.221804E+05  0.409758E+01  0.493351E+06  0.112116E+01 *******    3.01 *******    3.09 *******    5.18
  -88.81  166.54  -91.15  -26.12  -92.10   70.80
  -59.52 -110.42  -33.55   59.56  -56.52   -6.03
 2.1300  0.289255E+06  0.113116E+01  0.378399E+05  0.154818E+01  0.293638E+06  0.197574E+01 *******    1.60 *******    1.77 *******    1.38
  -83.08  -47.77 -117.93   84.45  -86.39   62.20
   10.34  131.58   32.63  -61.98   13.39   33.65
 2.1600  0.390363E+06  0.112578E+01  0.250372E+05  0.147959E+01  0.399366E+06  0.661868E+00 *******    0.45 *******    0.50 *******    0.35
 -107.16  -17.14  -95.12  153.48 -111.03  -32.57
   82.49 -143.27  105.47   30.73   85.51   -7.75
 2.1900  0.347512E+06  0.240560E+00  0.217955E+05  0.511993E+00  0.361236E+06  0.699390E+00 *******    0.18 *******    0.14 *******    0.31
  -83.29 -159.63 -125.23   21.10  -87.39  -16.14
  157.44  -57.86  174.53  120.23  160.39  106.47
 2.2200  0.251788E+06  0.133642E+00  0.263935E+05  0.911417E-01  0.263718E+06  0.213876E+00 *******    0.24 *******    0.22 *******    0.21
 -111.86  -12.88 -104.78 -127.90 -116.10  149.22
 -130.75    7.13 -111.47 -173.51 -127.86 -179.06
 2.2500  0.355302E+06  0.309790E+00  0.148624E+05  0.409067E+00  0.378585E+06  0.874896E+00 *******    0.13 *******    0.12 *******    0.34
  -98.50  -36.39 -120.85  132.48 -103.15   -3.39
  -52.44   92.33  -36.12  -87.87  -49.66 -113.35
 2.2800  0.200437E+06  0.250951E+00  0.228834E+05  0.291959E+00  0.216471E+06  0.776126E+00 *******    0.08 *******    0.10 *******    0.39
  -99.63  -88.90 -121.12   57.83 -104.15  -39.01
   21.32  163.91   36.04  -16.50   24.03   48.02
 2.3100  0.304010E+06  0.129869E+00  0.135539E+05  0.723079E-01  0.332699E+06  0.477028E+00 *******    0.03 *******    0.01 *******    0.47
 -115.85  -33.93 -107.89  157.24 -120.86  -50.24
   99.85  -95.50  114.47   93.36  102.44  109.21
 2.3400  0.215694E+06  0.119809E+00  0.174300E+05  0.308028E+00  0.240344E+06  0.666346E+00 *******    0.04 *******    0.05 *******    0.34
  -95.88  -83.98 -134.38   78.38 -100.81  -27.81
  178.34  -55.72 -169.17  119.28 -179.16 -157.43
 2.3700  0.229590E+06  0.121845E+00  0.131625E+05  0.817353E-01  0.258325E+06  0.796179E-01 *******    0.04 *******    0.02 *******    0.56
 -128.47    3.47 -107.89  172.63 -133.65  168.03
 -104.84   -1.84  -95.99  164.43 -102.42  -92.46
 2.4000  0.230605E+06  0.207028E+00  0.111225E+05  0.230520E+00  0.264672E+06  0.146902E+00 *******    0.02 9165.66    0.04 *******    0.22
 -102.98  -82.91 -141.00   81.88 -108.19  129.41
  -21.23  148.34  -14.80  -41.82  -18.93   12.44
 2.4300  0.169171E+06  0.503339E-01  0.123368E+05  0.521968E-01  0.195909E+06  0.419416E+00 *******    0.02 8477.97    0.03 *******    0.14
 -132.45  -36.55 -117.66   56.09 -137.64   27.10
   55.14  147.20   60.95  -19.83   57.38   33.27
 2.4600  0.229551E+06  0.431099E-01  0.714553E+04  0.289445E-02  0.271194E+06  0.537977E+00 *******    0.03 8259.08    0.04 *******    0.34
 -113.23   68.24 -141.45   26.47 -118.61 -106.64
  141.64  -98.51  146.42   81.97  143.76   44.78
 2.4900  0.135217E+06  0.511863E-01  0.984596E+04  0.870671E-01  0.161392E+06  0.213413E+00 *******    0.05 7390.65    0.06 *******    0.19
 -129.46  -39.88 -127.70   59.17 -134.61   83.47
 -139.84  -11.49 -135.65 -177.44 -137.78  -66.87
 2.5200  0.215191E+06  0.125117E+00  0.475285E+04  0.577919E-01  0.261590E+06  0.873487E+00 *******    0.05 7368.48    0.07 *******    0.54
 -122.47  128.78 -136.00  -83.23 -128.03 -114.53
  -52.68   98.11  -48.16  -73.94  -50.72   32.45
 2.5500  0.119042E+06  0.144277E+00  0.751262E+04  0.173661E+00  0.146702E+06  0.120141E+01 *******    0.04 6083.81    0.04 *******    0.84
 -124.67  -48.50 -137.20  113.24 -130.04   77.97
   29.90  145.96   33.67  -24.20   31.85  137.32
 2.5800  0.195706E+06  0.140124E+00  0.355588E+04  0.222670E+00  0.245680E+06  0.518050E+00 *******    0.08 6247.53    0.11 *******    0.32
 -127.49  158.46 -135.25  -31.58 -133.81  -84.65
  117.46  -42.46  119.97  139.14  119.51  125.16
 2.6100  0.118780E+06  0.110435E+00  0.542471E+04  0.245171E+00  0.154673E+06  0.733074E+00 *******    0.35 5219.87    0.43 *******    0.95
 -116.76  111.56 -144.80  -50.72 -124.75  -50.55
 -154.13   36.50 -152.25 -156.47 -150.68  -94.47
 2.6400  0.122308E+06  0.679703E+00  0.269530E+04  0.545018E+00  0.148637E+06  0.128661E+01 *******    0.34 5631.75    0.29 *******    0.33
 -143.94 -115.17 -131.49   34.52 -139.33  -11.77
  -78.31  -95.27  -67.70   74.42  -79.07 -174.60
 2.6700  0.799335E+05  0.348595E+00  0.413570E+04  0.415889E+00  0.100967E+06  0.718125E+00 *******    0.08 4247.45    0.10 *******    0.27
 -123.73   85.77 -153.22  -88.64 -125.73  -84.27
   18.26   10.29   25.36 -169.49   18.45 -174.59
 2.7000  0.126040E+06  0.232024E+00  0.191863E+04  0.348227E+00  0.161078E+06  0.491716E+00 *******    0.02 4439.10    0.01 *******    0.20
 -134.45 -110.94 -136.51   52.02 -137.38 -153.89
  107.83  160.73  115.09  -78.44  108.13 -123.46
 2.7300  0.679960E+05  0.395683E-01  0.268069E+04  0.152935E-01  0.883194E+05  0.153837E+00 *******    0.02 3669.01    0.01 *******    0.25
 -122.20   36.85 -159.34   42.92 -125.13  151.19
 -159.08 -141.91 -152.62  -18.56 -158.79  -22.56
 2.7600  0.102154E+06  0.503474E-01  0.124179E+04  0.138437E+00  0.133096E+06  0.174222E+00 *******    0.03 3818.59    0.01 *******    0.19
 -128.13  126.87 -143.08  -62.26 -131.35   76.36
  -67.17   13.93  -59.84  173.01  -66.94   57.04
 2.7900  0.545475E+05  0.635331E-01  0.185454E+04  0.509611E-01  0.721303E+05  0.512830E+00 *******    0.04 3005.08    0.08 *******    0.20
 -121.79   -8.64 -163.23 -178.30 -124.70 -171.59
   26.93  -60.22   33.71  127.45   27.11  -72.07
 2.8200  0.791211E+05  0.138845E+00  0.890132E+03  0.232994E+00  0.104365E+06  0.259480E+00 *******    0.02 2900.42    0.07 *******    0.15
 -117.79 -127.93 -164.90   41.54 -120.80 -152.83
  121.90  -36.37  128.44 -160.81  122.04  -64.12
 2.8500  0.443285E+05  0.867713E-01  0.120252E+04  0.166884E+00  0.593251E+05  0.787831E+00 *******    0.00 2324.92    0.04 *******    0.11
 -119.55  134.08 -168.20  -46.93 -122.02 -101.74
 -143.18  -97.67 -136.84  -91.01 -143.09   -4.57
 2.8800  0.604917E+05  0.942075E-01  0.431872E+03  0.927495E-01  0.804648E+05  0.745386E+00 *******    0.02 2463.51    0.01 *******    0.13
 -102.12  -88.15 -158.27   65.25 -104.34  116.53
  -45.09   99.47  -37.88  -62.23  -45.03  167.72
 2.9100  0.391883E+05  0.259894E+00  0.704722E+03  0.425716E+00  0.530848E+05  0.136324E+01 *******    0.04 1812.29    0.03 *******    0.09
 -112.60  166.28 -176.02  -23.04 -114.07    7.90
   50.35  130.59   57.74  -56.28   50.37  -56.81
 2.9400  0.475536E+05  0.427646E+00  0.617438E+02  0.605358E+00  0.642387E+05  0.274624E+01 *******    0.06 1037.97    0.13 *******    0.03
  -81.78   40.39 -119.02 -127.31  -82.55 -176.74
  151.27   34.54  156.80 -148.05  151.26  153.35
 2.9700  0.408944E+05  0.555967E-01  0.425192E+03  0.349995E+00  0.566698E+05  0.170429E+01 *******    0.01 1035.57    0.07 *******    0.17
 -103.35  141.49  146.57   42.26 -103.43 -179.89
 -113.83   39.48 -104.84   -0.74 -113.81   50.75
 3.0000  0.410946E+05  0.937432E-01  0.383026E+03  0.218256E+00  0.572962E+05  0.579821E+00 *******    0.04  757.06    0.08 *******    0.27
  -57.65  131.49  168.03  -12.29  -57.09   -6.75
  -10.94  -24.03    2.73  162.18  -10.98  -28.40
 3.0300  0.521264E+05  0.479887E-01  0.132531E+03  0.812141E-01  0.747842E+05  0.397193E+00 *******    0.05  378.15    0.08 *******    0.09
  -83.79  -29.26 -142.21  106.70  -82.93  -46.16
   89.60  137.98  111.57  -79.01   89.59  -93.84
 3.0600  0.335624E+05  0.157982E+00  0.176069E+03  0.280879E+00  0.486324E+05  0.730572E+00 *******    0.03  196.63    0.07 *******    0.23
  -46.60 -100.25  154.77   66.55  -45.34   10.55
 -168.20 -171.93    5.20    5.88 -168.20   76.82
 3.0900  0.630296E+05  0.109638E+00  0.608366E+02  0.130030E+00  0.929665E+05  0.717444E+00 *******    0.09 1977.37    0.20 *******    0.28
  -61.11   42.20   83.08 -110.67  -60.02    8.40
  -63.74  -49.64  131.55  114.04  -63.74   32.29
 3.1200  0.461243E+05  0.322759E+00  0.157665E+04  0.452860E+00  0.715728E+05  0.464050E+01 *******    0.85 *******    0.95 *******    5.35
  -55.32    0.05   -5.31  161.47  -54.73  -38.50
   38.16 -111.16  -57.49   37.71   38.14   72.60
 3.1500  0.669128E+05  0.246893E-01  0.400667E+03  0.744631E-01  0.101474E+06  0.328309E+00 *******    0.10 3740.90    0.18 *******    0.41
  -42.30  -78.46 -179.04   58.26  -41.45   83.63
  146.33   57.28  149.00 -150.19  146.36 -157.24
 3.1800  0.487841E+05  0.148638E-01  0.130362E+03  0.156487E-01  0.749877E+05  0.317582E+00 *******    0.05 2129.34    0.09 *******    0.23
  -74.18   43.82 -121.95 -118.93  -73.45  -59.53
 -113.43  167.82 -104.80  -11.18 -113.38  169.52
 3.2100  0.519498E+05  0.452052E-01  0.125889E+03  0.894200E-01  0.808435E+05  0.270410E+00 *******    0.03 1463.80    0.05 *******    0.08
  -30.15  -37.52 -160.16  124.42  -29.26   -4.45
   -2.25 -124.73    8.40   47.37   -2.20 -179.47
 3.2400  0.701715E+05  0.158468E-01  0.711502E+02  0.333801E-01  0.110267E+06  0.388249E+00 *******    0.01 1201.45    0.02 *******    0.10
  -61.59  -97.37 -146.62   30.48  -60.84  -95.30
  103.57  117.35  113.15 -136.84  103.68  -49.47
 3.2700  0.357301E+05  0.195518E-01  0.112086E+03  0.412972E-01  0.567323E+05  0.475669E+00 *******    0.03  849.19    0.07 *******    0.06
  -48.77 -146.24 -114.26   76.20  -47.75   22.18
 -148.67 -165.74 -139.44   -2.34 -148.59 -119.62
 3.3000  0.643716E+05  0.206782E+00  0.685428E+02  0.292963E+00  0.104081E+06  0.487689E+00 *******    0.02  627.76    0.04 *******    0.12
  -43.00  -65.36 -137.73  103.89  -41.42  -53.58
  -36.93  -92.05  -28.01   75.19  -36.83  146.63
 3.3300  0.335361E+05  0.467411E+00  0.633554E+02  0.914956E+00  0.454678E+05  0.182911E+01 *******    0.06  510.56    0.08 *******    0.71
 -100.84  -39.78  -98.12  132.14  -95.73   11.02
   55.23  163.79   66.23  -48.60   55.60  -30.58
 3.3600  0.535469E+05  0.117746E+00  0.674563E+02  0.166670E+00  0.844789E+05  0.484950E+00 *******    0.02  508.83    0.05 *******    0.32
  -45.77  137.23 -131.57  -54.15  -47.21  -34.19
 -173.47   97.07 -162.48 -114.51 -173.14  155.17
 3.3900  0.787367E+05  0.544115E-01  0.242708E+02  0.974506E-01  0.126812E+06  0.183744E+00 *******    0.01  422.68    0.01 *******    0.07
  -70.35    4.08 -167.10 -153.88  -71.40  -45.59
  -63.28   99.96  -54.34  -68.91  -62.97  -84.62
 3.4200  0.423931E+05  0.747167E-01  0.319353E+02  0.843756E-01  0.689881E+05  0.900101E-01 *******    0.03  320.02    0.05 *******    0.18
  -80.71  -84.84  147.47   84.75  -81.80  -28.95
   50.29  136.94   57.87  -45.91   50.64   13.98
 3.4500  0.618880E+05  0.154449E-01  0.614661E+02  0.135985E-01  0.101574E+06  0.261359E+00 *******    0.00  274.67    0.00 *******    0.12
  -54.66 -109.16  104.61  -33.00  -55.90   71.35
  169.12 -110.89  171.81   20.22  169.53  158.70
 3.4800  0.701357E+05  0.210177E-01  0.115676E+03  0.363020E-01  0.115888E+06  0.255191E+00 *******    0.01  221.88    0.01 *******    0.09
  -86.42 -107.31  121.16   77.15  -88.07 -103.05
  -77.98  -71.95  -78.02   91.16  -77.41 -176.63
 3.5100  0.412366E+05  0.363731E-01  0.276118E+03  0.975570E-01  0.684069E+05  0.497867E-01 *******    0.02  176.98    0.04 *******    0.02
  -81.07  136.92  100.97  -47.12  -83.48   75.35
   40.80  175.86   41.53  -16.88   41.76 -111.30
 3.5400  0.693774E+05  0.510257E-01  0.348322E+03  0.565046E-01  0.116012E+06  0.243525E+00 *******    0.08  148.33    0.14 *******    0.32
  -67.17 -166.59   83.65   -6.68  -71.99  144.37
  165.50  -59.95  155.60  117.22  168.20  -60.59
 3.5700  0.384560E+05  0.146503E+00  0.811533E+03  0.194563E+00  0.878633E+05  0.702860E+00 *******    0.09   95.79    0.18 *******    0.46
  -71.07 -157.32  114.81   -1.99  -75.15    8.06
 -128.88 -150.49  -88.27   21.62 -129.18 -163.94
 3.6000  0.358356E+05  0.164187E+00  0.250532E+04  0.252689E+00  0.646344E+05  0.817581E+00 *******    0.02  110.35    0.05 *******    0.18
  -79.55 -133.82  114.82   14.65  -76.72  127.46
   10.51  -48.69   91.30  142.06    9.47  -73.09
 3.6300  0.591776E+05  0.130051E+00  0.163640E+04  0.204900E+00  0.104678E+06  0.948720E+00 *******    0.04   90.97    0.07 *******    0.15
  -80.21  -15.69 -149.23  155.95  -78.76 -100.43
  141.46 -121.48   91.00   61.80  140.96 -130.18
 3.6600  0.550051E+05  0.853494E-01  0.831381E+03  0.134834E+00  0.972837E+05  0.285724E+00 *******    0.01   67.84    0.01 *******    0.04
 -109.45   18.04  -90.75 -147.58 -108.61 -107.11
  -87.52  -37.44 -119.29 -148.98  -87.84   51.03
 3.6900  0.300951E+05  0.246579E-01  0.763261E+03  0.156676E-01  0.534726E+05  0.212895E+00 *******    0.00   23.99    0.00 *******    0.19
  -97.22   20.58 -110.64  178.49  -96.78  -82.08
   32.21 -157.48  -89.95 -158.32   31.97  163.33
 3.7200  0.479834E+05  0.232451E-01  0.377766E+03  0.365806E-01  0.856820E+05  0.180675E+00 *******    0.01   48.00    0.01 *******    0.04
  -85.39 -176.22 -127.52   51.28  -85.31  112.65
  159.28  173.35  -32.11  158.41  159.09  -10.68
 3.7500  0.502854E+05  0.384288E-01  0.255635E+03  0.524720E-01  0.903161E+05  0.619903E-01 *******    0.01  103.59    0.02 *******    0.08
 -110.20  -48.66  -94.83  107.22 -110.42   27.97