VARIABLES="w (rad/s)"
"abs(F   1   1)" "angle(F   1   1)"
"abs(F   1   2)" "angle(F   1   2)"
"abs(F   1   3)" "angle(F   1   3)"
"abs(F   1   4)" "angle(F   1   4)"
"abs(F   1   5)" "angle(F   1   5)"
"abs(F   1   6)" "angle(F   1   6)"
"abs(F   2   7)" "angle(F   2   7)"
"abs(F   2   8)" "angle(F   2   8)"
"abs(F   2   9)" "angle(F   2   9)"
"abs(F   2  10)" "angle(F   2  10)"
"abs(F   2  11)" "angle(F   2  11)"
"abs(F   2  12)" "angle(F   2  12)"
Zone t="FKforce - beta =   0.000",I=   500,F=POINT
  0.3000000E-01  0.1050616E+05 -0.1570779E+01  0.2228697E-01  0.7937843E-01  0.9805872E+06  0.2100717E-09  0.7716468E-01  0.2052038E-01  0.1747836E+05 -0.1570797E+01  0.2783207E-01  0.1644735E-02  0.1050614E+05 -0.1356568E+01  0.3507903E+00  0.3119929E+01  0.9805869E+06  0.2142421E+00  0.4179044E+00  0.5655169E-01  0.1747844E+05 -0.1356529E+01  0.7076920E-02  0.2617135E+00
  0.6000000E-01  0.2101715E+05 -0.1570802E+01  0.1055506E-01  0.2669268E+01  0.9793507E+06  0.4674155E-10  0.1171902E+00 -0.6819556E-02  0.3495545E+05 -0.1570797E+01  0.1517654E-01 -0.7245360E-01  0.2101721E+05 -0.1141901E+01  0.1221175E+00  0.3219086E+00  0.9793506E+06  0.4288774E+00  0.1391367E+00  0.2765159E+01  0.3495612E+05 -0.1141918E+01  0.7785751E-02  0.2422763E+01
  0.9000000E-01  0.3153784E+05 -0.1570793E+01  0.6764039E-02 -0.9328468E+00  0.9772904E+06  0.4840142E-09  0.7839959E-01  0.3113721E+01  0.5243049E+05 -0.1570797E+01  0.5374530E-02 -0.3576244E-01  0.3153761E+05 -0.9264786E+00  0.2398719E+00  0.3135995E+01  0.9772896E+06  0.6443033E+00  0.1318090E+00 -0.3399091E+00  0.5243238E+05 -0.9265050E+00  0.2689539E-01 -0.3087101E+01
  0.1200000E+00  0.4207319E+05 -0.1570794E+01  0.2465394E-01  0.2323051E+01  0.9744070E+06  0.1487659E-09  0.1718866E+00  0.1160726E-01  0.6990235E+05 -0.1570796E+01  0.4634055E-02  0.2818671E+01  0.4207343E+05 -0.7098542E+00  0.2639671E+00 -0.1938335E+01  0.9744062E+06  0.8609208E+00  0.8710929E-01  0.1869501E+01  0.6990681E+05 -0.7098827E+00  0.3537260E-01 -0.1106572E+00
  0.1500000E+00  0.5262833E+05 -0.1570791E+01  0.1125830E-01  0.1633662E+00  0.9707021E+06 -0.3466113E-08  0.2999332E-01  0.2806016E+01  0.8736989E+05 -0.1570797E+01  0.2741917E-01 -0.3067406E+01  0.5262862E+05 -0.4916671E+00  0.5838101E-01 -0.2388727E+01  0.9707029E+06  0.1079138E+01  0.1211625E+00  0.2081320E+01  0.8737820E+05 -0.4916519E+00  0.8300781E-02 -0.2060754E+01
  0.1800000E+00  0.6320838E+05 -0.1570794E+01  0.2497035E-01  0.2538805E+00  0.9661799E+06  0.5369588E-09  0.2112014E+00 -0.1369360E-01  0.1048323E+06 -0.1570796E+01  0.3173848E-01  0.3138017E+01  0.6320874E+05 -0.2714366E+00  0.9624746E-01  0.2260988E+01  0.9661808E+06  0.1299378E+01  0.4822195E-01 -0.2532526E+01  0.1048471E+06 -0.2714182E+00  0.5864459E-02 -0.1529154E+01
  0.2100000E+00  0.7381902E+05 -0.1570795E+01  0.5067684E-02 -0.2727156E+01  0.9608449E+06  0.1429254E-09  0.6842706E-01 -0.3097112E+01  0.1222898E+06 -0.1570796E+01  0.4545036E-01  0.4206187E-01  0.7381897E+05 -0.4872550E-01  0.4283220E-01  0.1442553E+01  0.9608439E+06  0.1522075E+01  0.3129990E+00 -0.1562509E+01  0.1223131E+06 -0.4871495E-01  0.2822571E-01 -0.2843094E+01
  0.2400000E+00  0.8446599E+05 -0.1570803E+01  0.4695572E-01  0.2139020E+01  0.9546974E+06  0.3835885E-09  0.6999341E-01 -0.6954457E-01  0.1397417E+06 -0.1570798E+01  0.2637124E-02 -0.7367933E+00  0.8446599E+05  0.1768734E+00  0.7582013E-01 -0.2222025E+01  0.9546968E+06  0.1747679E+01  0.6860401E-01 -0.2544460E+01  0.1397770E+06  0.1768821E+00  0.4295002E-01  0.3039096E+01
  0.2700000E+00  0.9515516E+05 -0.1570792E+01  0.1042357E-01  0.2904447E+01  0.9477444E+06  0.6601045E-09  0.1088708E-01 -0.2249641E+01  0.1571882E+06 -0.1570796E+01  0.6299496E-01 -0.1456414E-01  0.9515515E+05  0.4058616E+00  0.2372919E+00 -0.1899217E+01  0.9477431E+06  0.1976660E+01  0.1565957E+00  0.1775683E+01  0.1572394E+06  0.4058600E+00  0.1999123E-01  0.1074374E+01
  0.3000000E+00  0.1058929E+06 -0.1570794E+01  0.2577383E-01 -0.2005920E+01  0.9399892E+06  0.1785623E-09  0.5188037E-01  0.3072844E+01  0.1746300E+06 -0.1570796E+01  0.1480064E-02  0.2998055E+01  0.1058926E+06  0.6387167E+00  0.8372825E-01 -0.7529186E+00  0.9399896E+06  0.2209509E+01  0.9508392E-01  0.1968945E+01  0.1747001E+06  0.6387129E+00  0.4312660E-01  0.1845986E+01
  0.3300000E+00  0.1166861E+06 -0.1570797E+01  0.3265422E-01  0.1060678E+00  0.9314412E+06 -0.1638191E-09  0.6397238E-01  0.1535542E-01  0.1920667E+06 -0.1570796E+01  0.2978523E-01  0.2177251E-02  0.1166861E+06  0.8759495E+00  0.8333031E-01 -0.3053585E+01  0.9314408E+06  0.2446749E+01  0.1270763E+00  0.1025434E+01  0.1921615E+06  0.8759521E+00  0.2175456E-01 -0.7695265E+00
  0.3600000E+00  0.1275418E+06 -0.1570794E+01  0.2977374E-01  0.8333648E+00  0.9221057E+06  0.4964330E-09  0.5718368E-01 -0.1379253E+00  0.2095003E+06 -0.1570797E+01  0.3105084E-01 -0.2242389E+00  0.1275419E+06  0.1118129E+01  0.3456086E+00  0.2782863E+01  0.9221049E+06  0.2688931E+01  0.1505208E+00 -0.1760816E+00  0.2096251E+06  0.1118135E+01  0.2150656E-01 -0.1525373E+01
  0.3900000E+00  0.1384678E+06 -0.1570800E+01  0.2412317E-01  0.1993123E+01  0.9119922E+06 -0.7027134E-09  0.2924151E-01  0.2675553E+01  0.2269329E+06 -0.1570796E+01  0.4883076E-01  0.1039025E-01  0.1384670E+06  0.1365846E+01  0.3779156E-01 -0.1252110E+01  0.9119909E+06  0.2936637E+01  0.4101562E-01 -0.1570796E+01  0.2270941E+06  0.1365840E+01  0.4851278E-01 -0.1702018E+01
  0.4200000E+00  0.1494717E+06 -0.1570799E+01  0.9061248E-02  0.2637597E+01  0.9011094E+06 -0.8805335E-09  0.2036286E-01  0.2213642E+01  0.2443669E+06 -0.1570796E+01  0.1364076E-01 -0.2596296E+00  0.1494710E+06  0.1619691E+01  0.1282555E-02 -0.9629943E+00  0.9011074E+06 -0.3092700E+01  0.2178863E-01  0.3067291E+01  0.2445701E+06  0.1619690E+01  0.5142870E-01  0.1608783E+01
  0.4500000E+00  0.1605624E+06 -0.1570791E+01  0.3059006E-01 -0.2723413E+01  0.8894689E+06  0.9263669E-09  0.4223461E-01  0.2836423E+01  0.2618027E+06 -0.1570796E+01  0.3649310E-01  0.2925520E+01  0.1605610E+06  0.1880337E+01  0.1052367E+00 -0.8968706E+00  0.8894661E+06 -0.2832049E+01  0.2491098E+00 -0.2485441E+00  0.2620569E+06  0.1880342E+01  0.6338260E-01 -0.2225083E+01
  0.4800000E+00  0.1717477E+06 -0.1570795E+01  0.1660908E-01 -0.3111501E+01  0.8770825E+06 -0.5567107E-09  0.1953217E-01  0.2346148E+01  0.2792444E+06 -0.1570796E+01  0.4230078E-01  0.3020728E+01  0.1717463E+06  0.2148498E+01  0.1209258E+00 -0.2234319E+00  0.8770803E+06 -0.2563894E+01  0.5051057E-01  0.5155490E+00  0.2795572E+06  0.2148493E+01  0.2483163E-01 -0.5252436E+00
  0.5100000E+00  0.1830379E+06 -0.1570798E+01  0.1792211E-01 -0.1932834E+01  0.8639663E+06  0.5298397E-09  0.1109113E-01  0.6190100E+00  0.2966951E+06 -0.1570796E+01  0.2156346E-01 -0.2827394E+01  0.1830358E+06  0.2424911E+01  0.2716990E-01 -0.2426144E+01  0.8639624E+06 -0.2287478E+01  0.1216325E+00  0.2492873E+01  0.2970783E+06  0.2424911E+01  0.5531173E-01  0.7354398E+00
  0.5400000E+00  0.1944414E+06 -0.1570798E+01  0.2978274E-01 -0.2755280E+01  0.8501348E+06 -0.1148715E-08  0.8873038E-02 -0.6469405E+00  0.3141576E+06 -0.1570796E+01  0.1949027E-01  0.4466660E+00  0.1944388E+06  0.2710381E+01  0.7432321E-01 -0.1648891E+01  0.8501298E+06 -0.2002010E+01  0.1429983E+00 -0.1285227E+01  0.3146222E+06  0.2710379E+01  0.7427815E-01  0.3071986E+00
  0.5699999E+00  0.2059681E+06 -0.1570797E+01  0.5724397E-01  0.2242956E+01  0.8356073E+06  0.2483458E-08  0.5691354E-01 -0.1678245E+01  0.3316353E+06 -0.1570796E+01  0.7006842E-02  0.1288309E+01  0.2059651E+06  0.3005765E+01  0.6850450E-01 -0.2139029E+01  0.8355999E+06 -0.1706625E+01  0.2149443E-01  0.2344147E+01  0.3321945E+06  0.3005764E+01  0.8590420E-01  0.2993265E+01
  0.6000000E+00  0.2176267E+06 -0.1570795E+01  0.1711094E-01  0.2143835E+01  0.8204033E+06 -0.6695687E-08  0.8423154E-01 -0.3009351E+01  0.3491334E+06 -0.1570796E+01  0.4443920E-01  0.3125711E+01  0.2176224E+06 -0.2971229E+01  0.1279168E+00 -0.1721609E+01  0.8203949E+06 -0.1400434E+01  0.5520515E-01 -0.1538175E+01  0.3497981E+06 -0.2971229E+01  0.2816520E-01  0.2399113E+01
  0.6299999E+00  0.2294263E+06 -0.1570797E+01  0.2747695E-01 -0.4036658E+00  0.8045476E+06  0.2162087E-08  0.1808050E+00  0.2964540E+01  0.3666520E+06 -0.1570796E+01  0.1787099E-01  0.2485455E+01  0.2294215E+06 -0.2653268E+01  0.1780096E+00  0.1139969E+01  0.8045374E+06 -0.1082471E+01  0.1114719E+00  0.1971267E-01  0.3674412E+06 -0.2653266E+01  0.4955168E-01 -0.2851788E+01
  0.6600000E+00  0.2413755E+06 -0.1570797E+01  0.1025816E-01 -0.3111374E+00  0.7880662E+06  0.2517101E-08  0.1609832E+00 -0.2557310E+01  0.3841917E+06 -0.1570796E+01  0.5978019E-02  0.4545155E+00  0.2413685E+06 -0.2322524E+01  0.1025185E+00 -0.2113871E+01  0.7880523E+06 -0.7517281E+00  0.6958275E-01  0.1562025E+01  0.3851219E+06 -0.2322522E+01  0.1524415E+00  0.1689589E+01
  0.6899999E+00  0.2534800E+06 -0.1570798E+01  0.1243799E-01  0.1963576E+01  0.7709864E+06 -0.3483261E-08  0.1631740E-01  0.7256036E+00  0.4017560E+06 -0.1570796E+01  0.1405341E-01  0.2698340E+01  0.2534713E+06 -0.1977950E+01  0.6628463E-01 -0.1961904E+01  0.7709707E+06 -0.4071546E+00  0.1001780E+00 -0.2133787E+01  0.4028467E+06 -0.1977953E+01  0.1171315E+00  0.1390570E+01
  0.7200000E+00  0.2657450E+06 -0.1570796E+01  0.3443781E-01 -0.1403417E+01  0.7533440E+06 -0.8912087E-08  0.3190798E-01  0.3875995E+00  0.4193413E+06 -0.1570796E+01  0.5568856E-01 -0.2987004E+00  0.2657344E+06 -0.1618472E+01  0.4040587E-01 -0.3006745E+01  0.7533238E+06 -0.4767408E-01  0.1821363E+00 -0.7379051E-01  0.4206155E+06 -0.1618471E+01  0.9499078E-01 -0.1798944E+01
  0.7499999E+00  0.2781735E+06 -0.1570796E+01  0.1174117E-01 -0.1382544E+01  0.7351726E+06 -0.6060572E-08  0.3326592E-01  0.2680048E+01  0.4369427E+06 -0.1570797E+01  0.4104123E-01  0.3532756E-01  0.2781597E+06 -0.1242955E+01  0.2475678E+00  0.3041872E+01  0.7351469E+06  0.3278389E+00  0.1203920E+00 -0.2877278E+01  0.4384247E+06 -0.1242959E+01  0.3802237E-01 -0.2869260E+01
  0.7800000E+00  0.2907638E+06 -0.1570796E+01  0.3940595E-01 -0.1552209E+01  0.7165114E+06 -0.2470330E-08  0.1679710E-01  0.1424933E+01  0.4545506E+06 -0.1570796E+01  0.3000106E-01 -0.4240598E+00  0.2907466E+06 -0.8502965E+00  0.1624407E+00  0.3020686E+01  0.7164811E+06  0.7204994E+00  0.1031938E+00 -0.2554902E+01  0.4562712E+06 -0.8502984E+00  0.5629705E-01  0.1915862E+01
  0.8100000E+00  0.3035108E+06 -0.1570796E+01  0.3118169E-01 -0.2535903E+01  0.6974058E+06  0.9976986E-08  0.5407436E-01  0.6744049E+00  0.4721524E+06 -0.1570796E+01  0.6074652E-01  0.3060496E+01  0.3034882E+06 -0.4393850E+00  0.3049560E-01  0.1249046E+01  0.6973682E+06  0.1131413E+01  0.5224837E-02 -0.2223643E+01  0.4741407E+06 -0.4393821E+00  0.7431667E-01  0.4195586E+00
  0.8400000E+00  0.3164034E+06 -0.1570796E+01  0.3846796E-02 -0.7980202E+00  0.6778990E+06  0.2881144E-08  0.4310721E-01  0.1935642E+01  0.4897272E+06 -0.1570796E+01  0.2703882E-01 -0.2918241E+01  0.3163758E+06 -0.9118172E-02  0.1098829E+00 -0.1551910E+01  0.6778539E+06  0.1561679E+01  0.7628018E-01 -0.1666962E+01  0.4920186E+06 -0.9117114E-02  0.1536046E+00 -0.2952925E+01
  0.8700000E+00  0.3294253E+06 -0.1570797E+01  0.4195082E-02  0.1599899E+01  0.6580428E+06 -0.8997000E-08  0.3255321E-01  0.2885814E+01  0.5072520E+06 -0.1570797E+01  0.9999072E-02  0.2196900E+01  0.3293892E+06  0.4415039E+00  0.4057273E-01  0.1913896E+01  0.6579881E+06  0.2012299E+01  0.1419640E+00 -0.1461267E+01  0.5098825E+06  0.4415033E+00  0.8495813E-01 -0.4456547E+00
  0.9000000E+00  0.3425518E+06 -0.1570796E+01  0.9218869E-01 -0.1540336E+01  0.6378894E+06  0.5740978E-09  0.7099170E-01  0.1373496E+01  0.5246874E+06 -0.1570797E+01  0.3666095E-01  0.3094960E+01  0.3425065E+06  0.9134180E+00  0.9908208E-02  0.1929567E+01  0.6378224E+06  0.2484214E+01  0.8584937E-01  0.2091706E+01  0.5276991E+06  0.9134190E+00  0.6181967E-01 -0.6537693E+00
  0.9300000E+00  0.3557505E+06 -0.1570796E+01  0.4046126E-01 -0.1084189E+01  0.6174909E+06  0.1265201E-07  0.6788348E-01  0.1910739E-01  0.5419923E+06 -0.1570796E+01  0.1420557E-01  0.2194854E+01  0.3556926E+06  0.1407447E+01  0.1014245E+00 -0.3095841E+01  0.6174108E+06  0.2978242E+01  0.3856031E-01  0.4947990E+00  0.5454337E+06  0.1407445E+01  0.1401367E+00 -0.1570796E+01
  0.9600000E+00  0.3689813E+06 -0.1570796E+01  0.2599847E-01  0.2642503E+01  0.5969052E+06  0.1738295E-08  0.6681592E-01 -0.2078272E+01  0.5591124E+06 -0.1570796E+01  0.5691230E-01  0.9774783E-01  0.3689085E+06  0.1924249E+01  0.1194019E+00  0.2833219E+01  0.5968080E+06 -0.2788140E+01  0.5076813E-01 -0.5147471E+00  0.5630299E+06  0.1924251E+01  0.4249169E-01  0.2298446E-01
  0.9900000E+00  0.3821942E+06 -0.1570796E+01  0.6570720E-01 -0.1770913E+01  0.5761885E+06 -0.1271150E-08  0.1563752E-01  0.3101575E+01  0.5759869E+06 -0.1570796E+01  0.5555646E-01 -0.3024460E+01  0.3821023E+06  0.2464350E+01  0.4782742E-01 -0.1121988E+01  0.5760715E+06 -0.2248039E+01  0.9186024E-01 -0.1050661E+01  0.5804339E+06  0.2464350E+01  0.8058453E-01 -0.2120894E-01
  0.1020000E+01  0.3953317E+06 -0.1570796E+01  0.2293532E-01 -0.2937853E+01  0.5553948E+06 -0.4945278E-08  0.2809734E-01  0.1072533E+01  0.5925406E+06 -0.1570796E+01  0.7035461E-01  0.3459990E-01  0.3952158E+06  0.3028075E+01  0.2048001E+00  0.1525481E+01  0.5552557E+06 -0.1684315E+01  0.2429291E-01  0.3040924E+01  0.5975749E+06  0.3028074E+01  0.1612578E+00 -0.3102219E+01
  0.1050000E+01  0.4083278E+06 -0.1570796E+01  0.7839569E-01 -0.1678444E+01  0.5345811E+06  0.2192137E-07  0.7537189E-01  0.1697461E+01  0.6086986E+06 -0.1570796E+01  0.3903775E-01  0.2637379E+01  0.4081821E+06 -0.2667592E+01  0.1688875E+00  0.9825807E+00  0.5344150E+06 -0.1096795E+01  0.6889483E-01  0.2674776E+01  0.6143779E+06 -0.2667592E+01  0.1375000E+00  0.6436787E+00
  0.1080000E+01  0.4211118E+06 -0.1570796E+01  0.1055197E-01  0.1240929E+01  0.5137985E+06 -0.4038929E-08  0.8619078E-01 -0.1846190E+01  0.6243723E+06 -0.1570797E+01  0.3784063E-01 -0.4124104E+00  0.4209275E+06 -0.2056273E+01  0.2083817E+00 -0.2653841E+01  0.5136013E+06 -0.4854763E+00  0.1057695E+00 -0.2122300E+01  0.6307599E+06 -0.2056273E+01  0.8662418E-01 -0.3270981E+00
  0.1110000E+01  0.4336042E+06 -0.1570796E+01  0.3547803E-01  0.1719293E+01  0.4930968E+06 -0.4332275E-08  0.3097652E-01 -0.1610214E+01  0.6394733E+06 -0.1570796E+01  0.9478711E-01 -0.3574508E-01  0.4333744E+06 -0.1421310E+01  0.4319289E-02 -0.7454195E+00  0.4928645E+06  0.1494863E+00  0.5209414E-01 -0.2701002E+01  0.6466296E+06 -0.1421310E+01  0.5533112E-01  0.1162428E+01
  0.1140000E+01  0.4457267E+06 -0.1570796E+01  0.3473182E-01 -0.1634102E+01  0.4725267E+06 -0.1227092E-07  0.1818136E+00 -0.1691945E+01  0.6539098E+06 -0.1570796E+01  0.1984403E+00 -0.3096903E+01  0.4454388E+06 -0.7630064E+00  0.1307461E+00 -0.1538113E+01  0.4722528E+06  0.8077883E+00  0.1279367E+00 -0.1494390E+01  0.6618962E+06 -0.7630065E+00  0.2996696E-01  0.8170878E+00
  0.1170000E+01  0.4573964E+06 -0.1570796E+01  0.7862245E-01 -0.1525755E+01  0.4521305E+06  0.1214951E-08  0.1242814E+00  0.1355004E+01  0.6675879E+06 -0.1570796E+01  0.2045352E-01 -0.1499117E+01  0.4570383E+06 -0.8172888E-01  0.2255950E+00 -0.1604892E+01  0.4518091E+06  0.1489068E+01  0.3286481E-01 -0.4702920E+00  0.6764648E+06 -0.8172859E-01  0.4494575E-01 -0.3108995E+01
  0.1200000E+01  0.4685310E+06 -0.1570796E+01  0.2957316E-01 -0.1636888E+01  0.4319498E+06  0.5793362E-08  0.2602751E-01  0.1740451E+01  0.6804146E+06 -0.1570796E+01  0.1553695E+00  0.3516632E-01  0.4680880E+06  0.6220723E+00  0.9632152E-01  0.5915175E+00  0.4315751E+06  0.2192869E+01  0.1193842E+00 -0.2204686E+01  0.6902469E+06  0.6220745E+00  0.1512412E+00 -0.2545084E+01
  0.1230000E+01  0.4790517E+06 -0.1570797E+01  0.2088035E-01 -0.2209694E+01  0.4120230E+06  0.8443713E-08  0.1812146E-01 -0.1943094E+01  0.6923085E+06 -0.1570796E+01  0.8830305E-02 -0.2029034E+01  0.4785038E+06  0.1347955E+01  0.9336583E-02  0.1373401E+01  0.4115872E+06  0.2918749E+01  0.3098663E-01 -0.1291414E+01  0.7031532E+06  0.1347954E+01  0.4550456E-01  0.5790743E+00
  0.1260000E+01  0.4888802E+06 -0.1570796E+01  0.6582897E-02  0.1833414E+01  0.3923868E+06 -0.4370911E-07  0.3318620E-01  0.1995417E+01  0.7031878E+06 -0.1570796E+01  0.1304665E+00 -0.3103339E+01  0.4882060E+06  0.2095381E+01  0.7073248E-01  0.2951474E+01  0.3918824E+06 -0.2617007E+01  0.8664123E-01  0.2484565E+01  0.7150959E+06  0.2095382E+01  0.1450269E+00 -0.1975688E+01
  0.1290000E+01  0.4979437E+06 -0.1570796E+01  0.3838475E-02 -0.2744661E+01  0.3730724E+06 -0.5889650E-08  0.2128110E+00  0.1416457E+01  0.7129778E+06 -0.1570796E+01  0.1230471E+00  0.3139857E+01  0.4971174E+06  0.2863942E+01  0.1455636E+00 -0.1937910E+01  0.3724920E+06 -0.1848447E+01  0.1544482E+00  0.1526521E+01  0.7259916E+06  0.2863941E+01  0.3357533E-01  0.1658165E+01
  0.1320000E+01  0.5061752E+06 -0.1570796E+01  0.8751659E-01  0.1484209E+01  0.3541120E+06 -0.2068334E-08  0.6374833E-01  0.1378119E+01  0.7216082E+06 -0.1570796E+01  0.5090343E-01 -0.3072293E+01  0.5051678E+06 -0.2630005E+01  0.7629639E-01 -0.1578796E+01  0.3534468E+06 -0.1059207E+01  0.4144013E-01  0.1956625E+00  0.7357698E+06 -0.2630003E+01  0.9379736E-01  0.1463876E+01
  0.1350000E+01  0.5135097E+06 -0.1570796E+01  0.1934730E-01  0.9121915E+00  0.3355352E+06  0.2746749E-07  0.1267477E+00  0.1251425E+01  0.7290216E+06 -0.1570796E+01  0.2880867E+00 -0.2330504E-02  0.5122845E+06 -0.1820529E+01  0.6810804E-01 -0.4327833E+00  0.3347766E+06 -0.2497326E+00  0.3416573E-01  0.2601173E+01  0.7443631E+06 -0.1820530E+01  0.1597389E+00  0.1361411E+01
  0.1380000E+01  0.5198911E+06 -0.1570796E+01  0.1267403E-01  0.2210746E+01  0.3173672E+06 -0.1923171E-09  0.9965143E-01  0.1708427E+01  0.7351693E+06 -0.1570796E+01  0.1391999E+00 -0.3117694E+01  0.5184110E+06 -0.9911249E+00  0.1140431E+00 -0.2966765E+01  0.3165060E+06  0.5796720E+00  0.1455455E+00  0.5312138E+00  0.7517079E+06 -0.9911264E+00  0.1782188E+00 -0.2015451E+01
  0.1410000E+01  0.5252698E+06 -0.1570796E+01  0.9779647E-01  0.1611999E+01  0.2996353E+06 -0.8147927E-09  0.8688663E-01  0.1579226E+01  0.7400031E+06 -0.1570796E+01  0.7991728E-01  0.2855110E+01  0.5234867E+06 -0.1421405E+00  0.6922258E-01  0.1554925E+01  0.2986624E+06  0.1428655E+01  0.1596314E+00  0.1635075E+01  0.7577451E+06 -0.1421415E+00  0.2734375E-01  0.3141593E+01
  0.1440000E+01  0.5295987E+06 -0.1570796E+01  0.1136665E+00  0.1520300E+01  0.2823608E+06  0.6484804E-08  0.9925187E-01  0.1499401E+01  0.7434891E+06 -0.1570796E+01  0.1998222E+00  0.7773825E-01  0.5274628E+06  0.7262304E+00  0.7169618E-01  0.1702688E-01  0.2812672E+06  0.2297027E+01  0.1312128E+00 -0.1699536E+01  0.7624280E+06  0.7262316E+00  0.1941778E+00  0.1902487E+01
  0.1470000E+01  0.5328410E+06 -0.1570796E+01  0.2480740E-01 -0.1824465E+01  0.2655675E+06 -0.5745728E-08  0.5659685E-01 -0.1181428E+01  0.7456006E+06 -0.1570796E+01  0.1919975E+00  0.3274910E-01  0.5302919E+06  0.1613700E+01  0.2056912E-01 -0.7722706E-01  0.2643432E+06 -0.3098689E+01  0.2914472E+00 -0.3095504E+01  0.7657179E+06  0.1613700E+01  0.4578662E-01 -0.1699120E+01
  0.1500000E+01  0.5349628E+06 -0.1570796E+01  0.3114328E-01  0.1956580E+01  0.2492735E+06 -0.9304380E-08  0.1247601E+00  0.1464927E+01  0.7463129E+06 -0.1570796E+01  0.2646918E+00  0.1810227E-01  0.5319334E+06  0.2520172E+01  0.1071798E+00 -0.1806452E+01  0.2479088E+06 -0.2192215E+01  0.4776741E-01  0.8186789E-01  0.7675686E+06  0.2520174E+01  0.2255815E+00 -0.8554788E+00
  0.1530000E+01  0.5359372E+06 -0.1570796E+01  0.9932588E-01 -0.1591691E+01  0.2334988E+06 -0.7580423E-08  0.1870706E-01 -0.1453068E+01  0.7456125E+06 -0.1570796E+01  0.6250584E-01 -0.1367102E-01  0.5323530E+06 -0.2837761E+01  0.4342771E-01  0.1253490E+01  0.2319852E+06 -0.1266966E+01  0.1678029E+00 -0.1540238E+01  0.7679506E+06 -0.2837762E+01  0.9378178E-01 -0.2785259E+01
  0.1560000E+01  0.5357450E+06 -0.1570796E+01  0.5527014E-01  0.1670348E+01  0.2182580E+06 -0.2376998E-07  0.1300087E+00  0.1659172E+01  0.7434921E+06 -0.1570796E+01  0.5613419E+00  0.3306019E-01  0.5315217E+06 -0.1893763E+01  0.3264188E-01 -0.6000603E+00  0.2165858E+06 -0.3229668E+00  0.1394712E+00  0.2944262E+01  0.7668400E+06 -0.1893762E+01  0.1738493E+00 -0.1586420E+01
  0.1590000E+01  0.5343714E+06 -0.1570796E+01  0.1502028E+00  0.1617951E+01  0.2035672E+06 -0.2788402E-07  0.1405679E-01  0.1501268E+01  0.7399465E+06 -0.1570796E+01  0.8155782E-01  0.1908451E-01  0.5294163E+06 -0.9311975E+00  0.8796062E-01  0.2933310E+01  0.2017280E+06  0.6395975E+00  0.1729956E-01 -0.1558682E+00  0.7642042E+06 -0.9311971E+00  0.2624938E-01  0.1682068E+00
  0.1620000E+01  0.5318089E+06 -0.1570796E+01  0.9873448E-01  0.1615320E+01  0.1894367E+06 -0.3866315E-08  0.5651825E-01 -0.1622656E+01  0.7349820E+06 -0.1570796E+01  0.2090045E+00 -0.3127721E+01  0.5260172E+06  0.4995374E-01  0.1966280E-01 -0.1601842E+01  0.1874224E+06  0.1620750E+01  0.4223368E-01 -0.1495576E+01  0.7600324E+06  0.4995366E-01  0.1801759E+00 -0.3140238E+01
  0.1650000E+01  0.5280552E+06 -0.1570796E+01  0.1539537E+00 -0.1572382E+01  0.1758781E+06  0.1127851E-07  0.9564209E-01  0.1570796E+01  0.7286056E+06 -0.1570796E+01  0.1794917E+00 -0.1400456E+00  0.5213130E+06  0.1049575E+01  0.1703089E-01  0.2411974E+01  0.1736809E+06  0.2620371E+01  0.7080120E-01  0.1567348E+01  0.7543065E+06  0.1049573E+01  0.2994837E+00 -0.1537367E+01
  0.1680000E+01  0.5231155E+06 -0.1570797E+01  0.1268105E+00  0.1583311E+01  0.1628982E+06  0.2697717E-07  0.3474596E-01  0.1401352E+01  0.7208358E+06 -0.1570796E+01  0.8984450E-01 -0.3137516E+01  0.5152969E+06  0.2067682E+01  0.1082720E+00 -0.6656817E-01  0.1605115E+06 -0.2644707E+01  0.6445497E-01 -0.2137388E+00  0.7470164E+06  0.2067681E+01  0.1384180E+00 -0.6879633E+00
  0.1710000E+01  0.5170006E+06 -0.1570796E+01  0.9745027E-01  0.1558270E+01  0.1505034E+06  0.3548476E-07  0.1269410E-01 -0.2448547E+01  0.7116902E+06 -0.1570796E+01  0.3183643E+00  0.3136033E+01  0.5079689E+06  0.3104173E+01  0.8810233E-01 -0.1515346E+01  0.1479218E+06 -0.1608216E+01  0.8468039E-01 -0.1645827E+01  0.7381579E+06  0.3104173E+01  0.6543282E-01  0.9794462E-02
  0.1740000E+01  0.5097284E+06 -0.1570796E+01  0.1035376E+00  0.1601455E+01  0.1386959E+06 -0.8581258E-08  0.3985775E-01 -0.1818328E+01  0.7011919E+06 -0.1570796E+01  0.1182296E+00  0.3330380E-01  0.4993320E+06 -0.2124073E+01  0.2520508E-01  0.2363044E+01  0.1359138E+06 -0.5532771E+00  0.3568548E-01  0.1618705E+01  0.7277262E+06 -0.2124072E+01  0.2377284E+00  0.1761948E+01
  0.1770000E+01  0.5013222E+06 -0.1570796E+01  0.7718732E-02  0.1926154E+01  0.1274779E+06  0.3088196E-07  0.5023282E-01  0.1726956E+01  0.6893759E+06 -0.1570796E+01  0.1796956E+00  0.3132082E+01  0.4893997E+06 -0.1050793E+01  0.3510158E-01  0.1829271E+01  0.1244921E+06  0.5200038E+00  0.1009079E+00  0.6294703E-01  0.7157272E+06 -0.1050793E+01  0.1478027E+00 -0.1139658E+01
  0.1800000E+01  0.4918126E+06 -0.1570796E+01  0.1090634E-01 -0.1322000E+01  0.1168472E+06  0.9924656E-08  0.2452497E-01  0.1308992E+01  0.6762727E+06 -0.1570796E+01  0.3101242E+00 -0.2056796E-01  0.4781867E+06  0.4089619E-01  0.2261446E-02  0.1733449E+01  0.1136548E+06  0.1611692E+01  0.4078359E-01  0.1510898E+01  0.7021642E+06  0.4089608E-01  0.1993349E+00 -0.1047567E+00
  0.1830000E+01  0.4812344E+06 -0.1570796E+01  0.6523692E-01 -0.1583895E+01  0.1068002E+06 -0.9429571E-08  0.2289966E+00  0.1617723E+01  0.6619273E+06 -0.1570796E+01  0.3686525E+00 -0.3140599E+01  0.4657180E+06  0.1150986E+01  0.3835825E-01 -0.2746312E+01  0.1034001E+06  0.2721781E+01  0.2392204E-01 -0.2474539E+00  0.6870484E+06  0.1150985E+01  0.1201928E+00 -0.1438379E+01
  0.1860000E+01  0.4696323E+06 -0.1570796E+01  0.5189971E-01 -0.1613146E+01  0.9733200E+05  0.3950617E-07  0.3078085E-01  0.1586660E+01  0.6463841E+06 -0.1570796E+01  0.3169182E+00 -0.3129363E+01  0.4520217E+06  0.2279367E+01  0.4424712E-01 -0.2447031E+01  0.9372433E+05 -0.2433022E+01  0.5569029E-01  0.3069211E-01  0.6703994E+06  0.2279367E+01  0.3619483E+00  0.2028411E+01
  0.1890000E+01  0.4570536E+06 -0.1570796E+01  0.2916080E-01 -0.1516350E+01  0.8843373E+05 -0.4158332E-07  0.7185910E-01  0.1448180E+01  0.6296931E+06 -0.1570796E+01  0.1407076E+00 -0.3107318E+01  0.4371343E+06 -0.2857034E+01  0.5442119E-01 -0.1631396E+01  0.8462012E+05 -0.1286237E+01  0.4610253E-01  0.1341070E+01  0.6522337E+06 -0.2857034E+01  0.2107880E+00  0.2815905E+01
  0.1920000E+01  0.4435536E+06 -0.1570796E+01  0.7715413E-02 -0.1265463E+01  0.8009623E+05 -0.4057771E-07  0.3376108E-01 -0.1925282E+01  0.6119118E+06 -0.1570796E+01  0.3032752E+00 -0.3122976E+01  0.4210968E+06 -0.1691892E+01  0.2649158E-01 -0.6917352E-01  0.7607998E+05 -0.1210955E+00  0.2056151E-01 -0.7434061E+00  0.6325811E+06 -0.1691892E+01  0.6678262E-01  0.1464580E+01
  0.1950000E+01  0.4291917E+06 -0.1570796E+01  0.8013839E-01  0.1604314E+01  0.7230762E+05  0.2880505E-07  0.8248928E-01 -0.1452131E+01  0.5930994E+06 -0.1570796E+01  0.5619897E-01 -0.4073832E-01  0.4039572E+06 -0.5084023E+00  0.4146799E-02  0.7437556E+00  0.6809312E+05  0.1062394E+01  0.1616683E-01 -0.1311167E+01  0.6114721E+06 -0.5084013E+00  0.1345789E+00  0.2612996E+01
  0.1980000E+01  0.4140354E+06 -0.1570796E+01  0.3190582E-01 -0.1601409E+01  0.6505440E+05 -0.2931929E-07  0.1019335E+00 -0.1606731E+01  0.5733246E+06 -0.1570796E+01  0.2710110E+00 -0.3131120E+01  0.3857702E+06  0.6934258E+00  0.1393153E-01  0.5028432E+00  0.6064830E+05  0.2264223E+01  0.2501488E-01  0.1433730E+01  0.5889436E+06  0.6934264E+00  0.1943852E+00  0.2496082E+01
  0.2010000E+01  0.3981549E+06 -0.1570796E+01  0.8544922E-02 -0.1570796E+01  0.5832145E+05 -0.2485509E-08  0.3201258E-01  0.1540286E+01  0.5526565E+06 -0.1570796E+01  0.3569874E+00  0.3124238E+01  0.3665955E+06  0.1913602E+01  0.1873302E-01  0.2944836E+01  0.5373157E+05 -0.2798788E+01  0.1389673E-01 -0.3217506E+00  0.5650400E+06  0.1913602E+01  0.2563570E+00 -0.1658525E+01
  0.2040000E+01  0.3816259E+06 -0.1570796E+01  0.4125336E-01  0.1591511E+01  0.5209208E+05 -0.2958487E-07  0.2012458E-01  0.1461395E+01  0.5311728E+06 -0.1570796E+01  0.4863294E+00 -0.2321783E-02  0.3464982E+06 -0.3131054E+01  0.1591602E-02 -0.5667292E+00  0.4732788E+05 -0.1560259E+01  0.6408401E-02  0.8663023E+00  0.5398141E+06 -0.3131054E+01  0.1135338E+00 -0.3074882E+01
  0.2070000E+01  0.3645285E+06 -0.1570796E+01  0.2639008E-01 -0.1570796E+01  0.4634835E+05 -0.1687251E-07  0.1814644E+00  0.1616556E+01  0.5089553E+06 -0.1570796E+01  0.1359660E-02 -0.7695265E+00  0.3255500E+06 -0.1874156E+01  0.2377239E-01 -0.7309067E+00  0.4142087E+05 -0.3033603E+00  0.3840465E-01  0.2777614E+01  0.5133179E+06 -0.1874156E+01  0.7579849E-01 -0.1081218E+01
  0.2100000E+01  0.3469474E+06 -0.1570796E+01  0.1568230E+00  0.1567683E+01  0.4107117E+05 -0.4811193E-07  0.3075034E-01 -0.1554917E+01  0.4860915E+06 -0.1570796E+01  0.3676758E+00  0.3141344E+01  0.3038278E+06 -0.5989144E+00  0.2726933E-01 -0.1099141E+01  0.3599310E+05  0.9718834E+00  0.4859870E-02 -0.1129617E+01  0.4856199E+06 -0.5989118E+00  0.3119655E-01  0.3019512E+00
  0.2130000E+01  0.3289721E+06 -0.1570796E+01  0.1781506E-01  0.1577649E+01  0.3624097E+05  0.4851465E-07  0.9181616E-01  0.1631992E+01  0.4626726E+06 -0.1570796E+01  0.2299400E-01  0.6241881E-01  0.2814181E+06  0.6945735E+00  0.5831413E-02  0.1957134E+01  0.3102616E+05  0.2265370E+01  0.3586335E-02 -0.1918113E+01  0.4567919E+06  0.6945744E+00  0.1234903E+00  0.2101468E+01
  0.2160000E+01  0.3106908E+06 -0.1570796E+01  0.2669776E-01 -0.1557079E+01  0.3183596E+05 -0.1021496E-07  0.1104037E-01  0.1862386E+01  0.4387927E+06 -0.1570796E+01  0.8953881E-02 -0.3843038E+00  0.2584034E+06  0.2006507E+01  0.1698226E-01 -0.4861518E+00  0.2649980E+05 -0.2705881E+01  0.4690185E-02  0.6096599E+00  0.4269108E+06  0.2006508E+01  0.1268376E+00  0.1859672E+01
  0.2190000E+01  0.2921985E+06 -0.1570796E+01  0.1588137E+00  0.1569259E+01  0.2783516E+05  0.4926804E-07  0.8138127E-01 -0.1615811E+01  0.4145553E+06 -0.1570796E+01  0.2617403E+00  0.1282579E-01  0.2348781E+06 -0.2946420E+01  0.2414556E-02  0.1209067E+01  0.2239415E+05 -0.1375625E+01  0.2502173E-01 -0.1273732E+01  0.3960648E+06 -0.2946421E+01  0.1352742E+00  0.8673834E-01
  0.2220000E+01  0.2735891E+06 -0.1570796E+01  0.2994737E-01 -0.1611569E+01  0.2421648E+05  0.2142338E-07  0.1811624E-02 -0.2140110E+01  0.3900619E+06 -0.1570796E+01  0.4926799E+00  0.3137505E+01  0.2109390E+06 -0.1597795E+01  0.2478155E-01  0.1408521E+00  0.1868812E+05 -0.2699984E-01  0.2548903E-02 -0.2914568E+00  0.3643484E+06 -0.1597794E+01  0.1101613E-01 -0.2234766E+00
  0.2250000E+01  0.2549598E+06 -0.1570796E+01  0.4372036E-02  0.1374085E+01  0.2095754E+05 -0.2439072E-07  0.3430263E-01  0.1563679E+01  0.3654217E+06 -0.1570796E+01  0.2652042E+00  0.2255603E-01  0.1866866E+06 -0.2307974E+00  0.1349747E-01  0.1989939E+01  0.1536033E+05  0.1339998E+01  0.9024126E-02 -0.1046617E+01  0.3318656E+06 -0.2307961E+00  0.2774624E-01  0.2646459E+01
  0.2280000E+01  0.2364084E+06 -0.1570796E+01  0.4703538E-01 -0.1573392E+01  0.1803607E+05 -0.7804491E-07  0.9366355E-01  0.1549942E+01  0.3407489E+06 -0.1570796E+01  0.2329104E+00 -0.1572326E-02  0.1622282E+06  0.1154493E+01  0.6060640E-02 -0.9716210E+00  0.1238927E+05  0.2725288E+01  0.6914235E-02 -0.2990957E+01  0.2987287E+06  0.1154492E+01  0.9241303E-01  0.1921373E+01
  0.2310000E+01  0.2180292E+06 -0.1570796E+01  0.6352691E-01 -0.1595779E+01  0.1542950E+05  0.3238765E-07  0.4465739E-01  0.1663869E+01  0.3161546E+06 -0.1570796E+01  0.1215703E-01 -0.2872258E+01  0.1376675E+06  0.2558158E+01  0.5119773E-02  0.2061104E+01  0.9752918E+04 -0.2154232E+01  0.1662760E-01 -0.1960505E+01  0.2650551E+06  0.2558156E+01  0.9679376E-01  0.8737974E+00
  0.2340000E+01  0.1999185E+06 -0.1570796E+01  0.3814697E-03 -0.2857799E+01  0.1311559E+05  0.8987330E-07  0.7134846E-01  0.1505736E+01  0.2917546E+06 -0.1570796E+01  0.1525197E+00  0.4803993E-01  0.1131183E+06 -0.2302998E+01  0.6195895E-02 -0.2810497E+01  0.7429441E+04 -0.7322025E+00  0.6395599E-02 -0.1801887E+01  0.2309746E+06 -0.2303000E+01  0.1084380E+00 -0.2471071E+01