VARIABLES="w (rad/s)"  
"A   1   1" "B   1   1"
"A   1   2" "B   1   2"
"A   1   3" "B   1   3"
"A   1   4" "B   1   4"
"A   1   5" "B   1   5"
"A   1   6" "B   1   6"
"A   2   1" "B   2   1"
"A   2   2" "B   2   2"
"A   2   3" "B   2   3"
"A   2   4" "B   2   4"
"A   2   5" "B   2   5"
"A   2   6" "B   2   6"
Zone t="Motion of body    1 in DoF   1",I=   500,F=POINT
  0.3000000E-01  0.3253437E+06  0.5893402E+00  0.5717468E-01 -0.6298730E-04 -0.1032574E+02 -0.1734096E+00  0.1684570E-01 -0.1110937E-02  0.2434510E+06  0.7674325E+00 -0.7208252E-01 -0.8693464E-04 -0.5401077E+03  0.5775539E+00 -0.4481316E-02  0.1855356E-03 -0.6973405E+04 -0.7273479E+01 -0.4491806E-01  0.1491183E-03 -0.6939657E+03  0.7524433E+00  0.2293015E-01  0.1644022E-02
  0.6000000E-01  0.3256064E+06  0.4730839E+01 -0.1602173E-01 -0.9368052E-04  0.4569748E+01  0.5863662E+00 -0.2422791E+00 -0.4671452E-03  0.2435870E+06  0.6158806E+01 -0.7446289E-01 -0.7221124E-03 -0.2020258E+03  0.4412841E+01 -0.1363754E-03  0.1093769E-03 -0.7600017E+04 -0.5541484E+02  0.1564407E-01 -0.7296324E-03 -0.2718648E+03  0.5745009E+01 -0.1703644E-01 -0.7697582E-03
  0.9000000E-01  0.3259208E+06  0.1605735E+02  0.1971436E-01 -0.1668076E-03 -0.2682831E+01  0.1010907E+01 -0.6919861E-01  0.9099233E-03  0.2440044E+06  0.2089187E+02  0.1009521E+00  0.1080340E-03 -0.6048284E+03  0.1364471E+02 -0.2598763E-02 -0.4338527E-03 -0.7974321E+04 -0.1831565E+03  0.1210022E-01  0.2644830E-02 -0.7954467E+03  0.1775458E+02  0.4524231E-02 -0.1464014E-02
  0.1200000E+00  0.3268209E+06  0.3845334E+02 -0.5508423E-02 -0.3541052E-04 -0.9796722E+01  0.1508661E+01 -0.1466370E+00 -0.3513345E-02  0.2452067E+06  0.4999554E+02 -0.5358887E-01  0.5242900E-02 -0.6756880E+03  0.2835126E+02 -0.3967285E-03  0.8246040E-03 -0.8141928E+04 -0.4195329E+03 -0.1419067E-02 -0.5660247E-03 -0.8737508E+03  0.3686110E+02  0.1396179E-02  0.2469635E-03
  0.1500000E+00  0.3275616E+06  0.7608264E+02 -0.6140900E-01 -0.1105893E-02 -0.2318799E+02  0.2011056E+01 -0.1243286E+00  0.1508296E-02  0.2458677E+06  0.9876965E+02 -0.1088257E+00 -0.2995402E-02 -0.8246306E+03  0.4554175E+02  0.1376152E-02  0.3005505E-03 -0.8055978E+04 -0.7819335E+03 -0.6904602E-03 -0.9106636E-03 -0.1067085E+04  0.5912760E+02 -0.6866455E-03 -0.1619911E-02
  0.1800000E+00  0.3286288E+06  0.1336465E+03  0.7337952E-01 -0.1723211E-02 -0.3896404E+02  0.1034279E+01 -0.1039734E+00 -0.4711893E-02  0.2470871E+06  0.1732463E+03 -0.1239014E+00  0.3430588E-02 -0.1059090E+04  0.5848897E+02 -0.2211571E-02  0.7652664E-03 -0.7487322E+04 -0.1273328E+04  0.3231049E-02  0.3874397E-02 -0.1371734E+04  0.7581300E+02 -0.4364014E-02 -0.1159058E-02
  0.2100000E+00  0.3298852E+06  0.2166192E+03 -0.1300507E+00  0.2457192E-03 -0.5368076E+02 -0.2863449E+01  0.4212952E-01  0.2067241E-02  0.2484733E+06  0.2802845E+03 -0.7580566E-01  0.2477210E-02 -0.1355929E+04  0.5637791E+02 -0.3169060E-02  0.9372711E-04 -0.6405556E+04 -0.1878906E+04 -0.3086090E-02 -0.1925011E-02 -0.1753495E+04  0.7292715E+02 -0.2670288E-03 -0.2185364E-02
  0.2400000E+00  0.3313296E+06  0.3315296E+03 -0.1054230E+00 -0.3668427E-02 -0.5817625E+02 -0.1072379E+02  0.7780457E-01  0.1996944E-02  0.2500380E+06  0.4280426E+03 -0.2905273E-01  0.3147097E-02 -0.1696947E+04  0.2429879E+02 -0.3990173E-02 -0.2256775E-03 -0.4777196E+04 -0.2564262E+04  0.5033493E-02  0.2841797E-02 -0.2189591E+04  0.3136267E+02  0.9246826E-02  0.3072510E-02
  0.2700000E+00  0.3329608E+06  0.4862691E+03 -0.1256485E+00 -0.5040608E-04 -0.4471664E+02 -0.2253455E+02  0.8068848E-01  0.9840655E-02  0.2518898E+06  0.6263074E+03 -0.6542969E-01 -0.2870377E-02 -0.2052037E+04 -0.5606748E+02  0.2737045E-03 -0.3754234E-03 -0.2614035E+04 -0.3274432E+04  0.1533318E-01  0.3286629E-02 -0.2641768E+04 -0.7226905E+02  0.1012421E-01  0.1015549E-02
  0.3000000E+00  0.3348152E+06  0.6903389E+03 -0.1085892E+00  0.8451148E-03 -0.6151016E+01 -0.3572898E+02  0.3894043E-01  0.3447819E-02  0.2538643E+06  0.8866667E+03 -0.1516113E+00  0.1739001E-02 -0.2375237E+04 -0.2049907E+03 -0.1134872E-02 -0.1234245E-02  0.3286192E+02 -0.3933900E+04 -0.1514721E-01  0.2029037E-02 -0.3049446E+04 -0.2633949E+03 -0.7204056E-02  0.2723694E-03
  0.3300000E+00  0.3368700E+06  0.9548301E+03 -0.1430511E+00  0.2371855E-02  0.5675430E+02 -0.4526014E+02 -0.1449585E-02 -0.3629353E-02  0.2561488E+06  0.1222728E+04 -0.1913452E+00 -0.2550391E-02 -0.2608458E+04 -0.4421794E+03 -0.5482674E-02  0.4846572E-04  0.3072299E+04 -0.4449392E+04 -0.6111145E-02  0.1576080E-02 -0.3338831E+04 -0.5664354E+03 -0.1390457E-02 -0.1158142E-02
  0.3600000E+00  0.3391278E+06  0.1292096E+04 -0.1743011E+00 -0.2242530E-02  0.1380299E+03 -0.4303381E+02  0.2110291E-01  0.2694826E-02  0.2585828E+06  0.1649114E+04 -0.1328125E+00 -0.9253921E-02 -0.2677752E+04 -0.7828623E+03  0.7305145E-03 -0.5232238E-03  0.6375365E+04 -0.4713232E+04 -0.2498627E-02  0.8610534E-03 -0.3415858E+04 -0.9994843E+03  0.4756927E-02  0.1433716E-02
  0.3900000E+00  0.3416501E+06  0.1715775E+04 -0.8419800E-01 -0.3069830E-02  0.2144560E+03 -0.2050721E+02 -0.6417847E-01  0.2278229E-02  0.2613096E+06  0.2181920E+04 -0.1239014E+00  0.4925322E-02 -0.2505250E+04 -0.1232944E+04  0.5445480E-03 -0.1439381E-02  0.9701372E+04 -0.4611664E+04  0.1007843E-01 -0.1132164E-02 -0.3183485E+04 -0.1568356E+04  0.1573181E-01 -0.1969757E-02
  0.4200000E+00  0.3443605E+06  0.2239394E+04 -0.1422119E+00 -0.2311209E-02  0.2567420E+03  0.2692737E+02 -0.1110840E-01  0.1839345E-02  0.2642831E+06  0.2836751E+04 -0.8746338E-01 -0.1201830E-01 -0.1997817E+04 -0.1781404E+04  0.1905441E-02  0.9653092E-03  0.1286694E+05 -0.4035133E+04 -0.3757477E-02  0.1137543E-02 -0.2527561E+04 -0.2257225E+04  0.1575470E-01  0.2964020E-02
  0.4500000E+00  0.3473438E+06  0.2877995E+04 -0.1446991E+00 -0.3849614E-02  0.2310056E+03  0.9599984E+02 -0.1445465E+00 -0.6272614E-02  0.2674348E+06  0.3630073E+04 -0.6347656E-01  0.5005861E-02 -0.1076290E+04 -0.2393319E+04  0.1281738E-02  0.4231453E-03  0.1556613E+05 -0.2892742E+04  0.3684998E-02 -0.6471634E-03 -0.1353116E+04 -0.3019503E+04  0.4074097E-02  0.3206635E-02
  0.4800000E+00  0.3505978E+06  0.3649458E+04  0.2917480E-01 -0.5091763E-02  0.1124490E+03  0.1698179E+03 -0.7595825E-01  0.1532822E-02  0.2709202E+06  0.4582279E+04 -0.8410645E-01 -0.1494324E-01  0.3218457E+03 -0.3000638E+04  0.7106781E-02 -0.5589295E-03  0.1749345E+05 -0.1132056E+04 -0.3395081E-02 -0.2479248E-02  0.4102565E+03 -0.3768335E+04  0.1968384E-02 -0.4171143E-02
  0.5100000E+00  0.3541853E+06  0.4579538E+04 -0.1162643E+00 -0.3255726E-02 -0.9908186E+02  0.2162756E+03  0.1824951E-01  0.1146432E-01  0.2748012E+06  0.5722600E+04 -0.1895142E+00 -0.5280075E-02  0.2219214E+04 -0.3494539E+04 -0.4974365E-02  0.9211922E-03  0.1831868E+05  0.1242294E+04 -0.1068115E-01  0.1313210E-03  0.2781417E+04 -0.4367210E+04  0.1922607E-02 -0.7470703E-02
  0.5400000E+00  0.3581008E+06  0.5709974E+04 -0.1353531E+00 -0.3400440E-02 -0.3591352E+03  0.1947991E+03  0.9613037E-03  0.2610197E-02  0.2789206E+06  0.7098021E+04 -0.1256714E+00 -0.2553806E-02  0.4580503E+04 -0.3720677E+04  0.7125854E-02 -0.2296829E-03  0.1777689E+05  0.4143270E+04 -0.9124756E-02  0.5057144E-03  0.5705032E+04 -0.4624668E+04 -0.3189087E-02  0.9048271E-02
  0.5699999E+00  0.3624728E+06  0.7109496E+04 -0.1069565E+00 -0.5487313E-02 -0.5797464E+03  0.7091190E+02  0.8775330E-01  0.2928777E-01  0.2835608E+06  0.8789175E+04 -0.1810303E+00 -0.2595119E-02  0.7269439E+04 -0.3481279E+04  0.2178192E-02 -0.1919975E-02  0.1559464E+05  0.7381729E+04 -0.9178162E-02 -0.1754722E-02  0.9000924E+04 -0.4301544E+04 -0.1008606E-01  0.7084121E-02
  0.6000000E+00  0.3672350E+06  0.8875958E+04 -0.1632080E+00 -0.9834837E-02 -0.6382413E+03 -0.1565165E+03 -0.2136230E-01  0.6765031E-02  0.2886573E+06  0.1091043E+05 -0.1087646E+00 -0.2878303E-01  0.1002636E+05 -0.2545886E+04  0.2784729E-03  0.6271362E-03  0.1164870E+05  0.1064446E+05  0.4585266E-02 -0.3103638E-02  0.1234137E+05 -0.3124088E+04  0.3082275E-02  0.2261352E-02
  0.6299999E+00  0.3723790E+06  0.1113401E+05 -0.2816010E-01 -0.1127098E-01 -0.4248088E+03 -0.4274539E+03  0.3265381E-02  0.1710805E-01  0.2940781E+06  0.1360285E+05 -0.1387329E+00 -0.4464955E-02  0.1242971E+05 -0.6890740E+03  0.3433228E-04  0.2963218E-02  0.5966247E+04  0.1348016E+05 -0.2098846E-01 -0.1180000E-01  0.1520470E+05 -0.8314995E+03 -0.5950928E-02  0.5767822E-02
  0.6600000E+00  0.3777972E+06  0.1400700E+05  0.6851196E-02 -0.1591399E-01  0.8252704E+02 -0.6097572E+03  0.1927185E-01 -0.3159714E-03  0.2996952E+06  0.1700209E+05 -0.2620239E+00 -0.2485348E-01  0.1388429E+05  0.2242691E+04  0.3587723E-02 -0.2351532E-02 -0.1171434E+04  0.1531492E+05 -0.3349304E-02  0.2920532E-03  0.1687140E+05  0.2740065E+04  0.1147461E-01  0.9265136E-03
  0.6899999E+00  0.3832934E+06  0.1755955E+05 -0.9938049E-01 -0.1236119E-01  0.7416754E+03 -0.5330735E+03 -0.7759094E-01  0.1536874E-01  0.3053644E+06  0.2117321E+05 -0.9741211E-01 -0.6074981E-02  0.1364836E+05  0.6223194E+04  0.7941723E-03 -0.5601196E-02 -0.9169222E+04  0.1551241E+05  0.5251408E-02 -0.6380309E-02  0.1646984E+05  0.7531503E+04  0.1137733E-02 -0.2168884E-02
  0.7200000E+00  0.3887305E+06  0.2174672E+05 -0.1263275E+00 -0.4798622E-02  0.1225947E+04 -0.8822506E+02 -0.6134033E-02 -0.3083038E-02  0.3109212E+06  0.2604503E+05 -0.2218018E+00  0.2071472E-01  0.1095793E+05  0.1090693E+05  0.1523972E-02  0.9393310E-03 -0.1706248E+05  0.1348260E+05  0.2887726E-02  0.1878662E-02  0.1312345E+05  0.1310110E+05  0.8567810E-02 -0.4174804E-02
  0.7499999E+00  0.3942318E+06  0.2643850E+05 -0.1670380E+00 -0.2737999E-01  0.1140189E+04  0.6305239E+03  0.8688354E-01  0.3894138E-01  0.3163513E+06  0.3143857E+05 -0.2346802E+00 -0.3222084E-01  0.5251133E+04  0.1551542E+05 -0.2952576E-02 -0.1061439E-02 -0.2358813E+05  0.8874538E+04 -0.1135254E-01  0.5378723E-03  0.6221549E+04  0.1849652E+05  0.1403809E-02 -0.8697509E-03
  0.7800000E+00  0.4002227E+06  0.3158481E+05 -0.1857758E+00 -0.1461325E-01  0.2610705E+03  0.1247960E+04  0.1752319E+00  0.6108627E-02  0.3222391E+06  0.3727865E+05 -0.6170654E-01 -0.4706588E-01 -0.3560682E+04  0.1880018E+05  0.1647186E-01 -0.1100922E-03 -0.2736443E+05  0.1779966E+04 -0.2210999E-01  0.6575775E-02 -0.4256278E+04  0.2223760E+05 -0.7629395E-03 -0.2043549E-01
  0.8100000E+00  0.4072362E+06  0.3749719E+05 -0.6058502E-01 -0.2235237E-01 -0.1105815E+04  0.1204546E+04 -0.4838562E-01  0.7812824E-02  0.3293129E+06  0.4392872E+05 -0.9979248E-01 -0.2718189E-01 -0.1481274E+05  0.1909082E+05  0.4806519E-03  0.3936539E-02 -0.2719265E+05 -0.7195534E+04 -0.1670837E-01 -0.6627846E-02 -0.1744351E+05  0.2240314E+05 -0.1403809E-02  0.1612312E-01
  0.8400000E+00  0.4155640E+06  0.4513044E+05  0.2047195E+00  0.2332323E-01 -0.2106073E+04  0.1533276E+03 -0.3780060E+00 -0.4388992E-01  0.3378505E+06  0.5247293E+05  0.3259277E-01 -0.2006241E-01 -0.2676851E+05  0.1450065E+05  0.8232117E-02  0.1372902E-01 -0.2213783E+05 -0.1680288E+05 -0.7202148E-02 -0.1180481E-01 -0.3125151E+05  0.1686925E+05 -0.1422119E-01  0.2589111E-02
  0.8700000E+00  0.4245256E+06  0.5587354E+05  0.5505066E+00  0.6729130E-01 -0.1665013E+04 -0.1496676E+04 -0.7124634E+00 -0.7550406E-01  0.3468322E+06  0.6444028E+05 -0.9350586E-01  0.2153892E-01 -0.3623439E+05  0.3460318E+04  0.9155273E-04  0.1005592E-01 -0.1193300E+05 -0.2497439E+05 -0.1708984E-02 -0.1680634E-01 -0.4194825E+05  0.3945193E+04 -0.4760742E-02  0.3345337E-02
  0.9000000E+00  0.4314238E+06  0.7033064E+05  0.4112015E+00  0.4012499E-01  0.4587917E+03 -0.2420289E+04 -0.7458038E+00 -0.5383386E-01  0.3533668E+06  0.8044142E+05  0.8337402E-01 -0.2311249E-01 -0.3849263E+05 -0.1394949E+05 -0.4364014E-02  0.1229782E-01  0.2440660E+04 -0.2893485E+05 -0.6347656E-02 -0.8404541E-02 -0.4418223E+05 -0.1608856E+05 -0.1800537E-01 -0.4504394E-02
  0.9300000E+00  0.4345173E+06  0.8678001E+05  0.9940338E-01  0.1202305E-01  0.2771473E+04 -0.1159982E+04 -0.2369080E+00 -0.5719019E-01  0.3555601E+06  0.9846030E+05 -0.5035400E-01 -0.3023323E-01 -0.2904505E+05 -0.3410088E+05 -0.6451607E-02 -0.3448334E-02  0.1782630E+05 -0.2597745E+05  0.1001358E-01 -0.1870331E-01 -0.3304095E+05 -0.3892685E+05 -0.3422737E-02 -0.1589356E-02
  0.9600000E+00  0.4348761E+06  0.1017213E+06 -0.2619247E+00 -0.1124890E+00  0.2736411E+04  0.1810293E+04  0.3850861E+00  0.1823254E+00  0.3547453E+06  0.1145312E+06 -0.2284546E+00 -0.5058105E-01 -0.6911214E+04 -0.4967870E+05 -0.9590149E-02 -0.2783203E-02  0.2965670E+05 -0.1536038E+05  0.2680969E-01 -0.2510742E-01 -0.7723559E+04 -0.5623583E+05  0.1092529E-01  0.2402344E-01
  0.9900000E+00  0.4374898E+06  0.1143983E+06 -0.4082184E+00 -0.5352316E-01 -0.3334709E+03  0.3597812E+04  0.4270172E+00  0.9708378E-01  0.3563832E+06  0.1278166E+06 -0.1316528E+00  0.4581711E-01  0.2375703E+05 -0.5255619E+05  0.7171631E-02 -0.5672378E-02  0.3426240E+05  0.9297762E+03 -0.5151367E-01  0.9788819E-02  0.2678467E+05 -0.5899673E+05  0.2868652E-02 -0.1546875E-01
  0.1020000E+01  0.4458259E+06  0.1304838E+06  0.1656342E+00  0.8130031E-01 -0.3719880E+04  0.1509567E+04 -0.2735443E+00 -0.1195351E+00  0.3642760E+06  0.1446226E+06  0.1549072E+00  0.4021728E-01  0.5485889E+05 -0.3599357E+05  0.1164246E-01  0.1263599E-02  0.2955293E+05  0.1938563E+05 -0.6378174E-02  0.5093307E-02  0.6122532E+05 -0.4003375E+05 -0.4577637E-02 -0.1212044E-02
  0.1050000E+01  0.4544631E+06  0.1584531E+06  0.1052231E+01  0.3597449E+00 -0.3087388E+04 -0.3260958E+04 -0.1229187E+01 -0.5909975E+00  0.3724770E+06  0.1741943E+06  0.7818604E-01  0.8415412E-01  0.7314505E+05  0.3609094E+04  0.1545715E-01  0.2339172E-02  0.1462743E+05  0.3467964E+05 -0.2053833E-01  0.3886871E-01  0.8096702E+05  0.4120768E+04 -0.4705811E-01 -0.5126953E-02
  0.1080000E+01  0.4500885E+06  0.1958240E+06  0.5161896E+00  0.2313772E+00  0.2002063E+04 -0.4547215E+04 -0.6900024E+00 -0.3651485E+00  0.3665954E+06  0.2136000E+06  0.7360840E-01 -0.1895142E-01  0.6117987E+05  0.5645434E+05  0.1403809E-02  0.4212159E-01 -0.7408042E+04  0.3862175E+05 -0.2674866E-01 -0.2023682E-01  0.6720302E+05  0.6218586E+05 -0.2865601E-01 -0.1252441E-01
  0.1110000E+01  0.4322357E+06  0.2234913E+06  0.3753662E-01 -0.4731845E-01  0.4741150E+04  0.7216238E+03 -0.5584717E-02  0.1585496E+00  0.3463615E+06  0.2420503E+06 -0.2777100E-01 -0.1151225E+00  0.1596350E+05  0.9339855E+05 -0.2639771E-02  0.1444748E-01 -0.2668274E+05  0.2653984E+05  0.4837036E-01 -0.1144958E-01  0.1733069E+05  0.1020912E+06 -0.1840210E-01 -0.2628662E-01
  0.1140000E+01  0.4211108E+06  0.2352367E+06 -0.2671280E+00 -0.1645960E+00  0.7590876E+03  0.5465658E+04  0.1713257E+00  0.2189772E+00  0.3334955E+06  0.2530536E+06 -0.1588135E+00  0.7406799E-01 -0.4219708E+05  0.9126663E+05 -0.1354980E-01 -0.9184570E-02 -0.3478636E+05  0.4003021E+04  0.1641846E-01  0.1461182E-01 -0.4590479E+05  0.9903887E+05 -0.8544922E-02 -0.3562500E-01
  0.1170000E+01  0.4265498E+06  0.2538995E+06 -0.5499268E-01  0.7986442E-01 -0.4589925E+04  0.2327181E+04  0.2030945E-01 -0.3537529E-01  0.3384243E+06  0.2712856E+06 -0.1530151E+00  0.1296112E-01 -0.9007455E+05  0.4404222E+05 -0.3549194E-01 -0.1074961E-01 -0.2990461E+05 -0.2125066E+05  0.3643799E-01  0.2910004E-02 -0.9723843E+05  0.4744175E+05  0.7019043E-01  0.3338470E-02
  0.1200000E+01  0.4269712E+06  0.3007007E+06  0.5314484E+00  0.3924454E+00 -0.2856767E+04 -0.5090038E+04 -0.6677704E+00 -0.6109681E+00  0.3381523E+06  0.3190039E+06  0.1036377E+00  0.7998047E-01 -0.9927296E+05 -0.4327820E+05 -0.3112793E-02 -0.3568726E-01 -0.1121994E+05 -0.4009985E+05  0.8056641E-02 -0.3369141E-02 -0.1065556E+06 -0.4652847E+05 -0.2221680E-01 -0.3281250E-01
  0.1230000E+01  0.3963912E+06  0.3471331E+06  0.3311386E+00  0.1374779E-01  0.3736916E+04 -0.4003844E+04 -0.2631226E+00 -0.3780876E-01  0.3056347E+06  0.3658709E+06  0.1458130E+00 -0.1480069E+00 -0.4623517E+05 -0.1216004E+06  0.1065493E-01  0.8107910E-02  0.1381746E+05 -0.3828014E+05 -0.1410484E-01 -0.1996948E-01 -0.4938216E+05 -0.1299650E+06  0.8773804E-02  0.1561523E-01
  0.1260000E+01  0.3635847E+06  0.3545403E+06 -0.2680054E+00 -0.2461130E+00  0.3493139E+04  0.3866888E+04  0.1799316E+00  0.4178787E+00  0.2712272E+06  0.3717521E+06  0.1038208E+00 -0.7959595E-01  0.3532765E+05 -0.1296729E+06 -0.4257202E-02  0.7132873E-02  0.2904752E+05 -0.1666671E+05 -0.3121948E-01 -0.3429932E-01  0.3757880E+05 -0.1379684E+06 -0.1660156E-01  0.7690430E-02
  0.1290000E+01  0.3595311E+06  0.3561516E+06 -0.1739426E+00  0.3122349E-01 -0.2459406E+04  0.4700827E+04  0.5261230E-01  0.1031039E+00  0.2668049E+06  0.3716525E+06 -0.1788330E-01 -0.1489673E+00  0.9828356E+05 -0.6667484E+05  0.1861572E-01  0.3961372E-02  0.2939163E+05  0.1114044E+05  0.1031494E-01  0.2786247E-01  0.1041049E+06 -0.7070694E+05  0.5444336E-01  0.1094421E-01
  0.1320000E+01  0.3599373E+06  0.3954234E+06  0.2058792E+00  0.2994603E+00 -0.3688104E+04 -0.2798731E+04 -0.2467651E+00 -0.5141144E+00  0.2670141E+06  0.4101874E+06 -0.1177368E+00 -0.8521912E-01  0.1102987E+06  0.4799445E+05  0.1358032E-01  0.6123047E-02  0.1510001E+05  0.3455842E+05 -0.2111816E-01  0.6533936E-01  0.1164890E+06  0.5053548E+05  0.1037598E-01  0.7895508E-02
  0.1350000E+01  0.3261163E+06  0.4414425E+06  0.2131042E+00  0.8518352E-01  0.1860560E+04 -0.4638054E+04 -0.2604065E+00 -0.1599953E+00  0.2325274E+06  0.4553441E+06  0.1820068E+00  0.1313415E+00  0.4532709E+05  0.1453960E+06 -0.5018234E-02 -0.2162933E-01 -0.8323718E+04  0.3734112E+05  0.5084991E-02  0.8157348E-02  0.4787819E+05  0.1530379E+06 -0.4388428E-01 -0.5603027E-02
  0.1380000E+01  0.2880246E+06  0.4390510E+06 -0.1081390E+00 -0.3990431E+00  0.3093739E+04  0.2067071E+04  0.4537964E-01  0.3476321E+00  0.1941769E+06  0.4513964E+06  0.1003418E+00 -0.1030957E+00 -0.4793328E+05  0.1404630E+06  0.6713867E-02 -0.2316284E-02 -0.2349218E+05  0.1669742E+05 -0.5065918E-02 -0.3958740E-02 -0.5022050E+05  0.1477736E+06 -0.2746582E-01 -0.7749023E-02
  0.1410000E+01  0.2810422E+06  0.4286280E+06 -0.1127243E+00 -0.7840027E-01 -0.1153916E+04  0.4019120E+04  0.5035400E-01 -0.1445801E-01  0.1874235E+06  0.4395647E+06 -0.1226196E+00 -0.1245712E+00 -0.1051362E+06  0.4797530E+05 -0.2505493E-01 -0.2629523E-01 -0.2359374E+05 -0.1056892E+05  0.8544922E-03  0.3411321E-01 -0.1103081E+06  0.5066282E+05  0.4357910E-01 -0.4776306E-02
  0.1440000E+01  0.2792033E+06  0.4563502E+06  0.9560394E-01  0.2360083E+00 -0.2695785E+04 -0.1385964E+04 -0.1222382E+00 -0.3749964E+00  0.1857894E+06  0.4659026E+06 -0.4327393E-01 -0.1674316E-01 -0.9569820E+05 -0.8282489E+05 -0.3417969E-02  0.3515625E-03 -0.1020815E+05 -0.3104723E+05  0.1037598E-02 -0.8024415E-01 -0.1004994E+06 -0.8653532E+05 -0.6591797E-02 -0.2566406E-01
  0.1470000E+01  0.2482838E+06  0.4903026E+06  0.3733063E-01  0.5990043E-01  0.9437491E+03 -0.3697124E+04 -0.1078796E+00 -0.1106044E+00  0.1553356E+06  0.4982794E+06  0.1097412E+00  0.1761685E+00 -0.1392407E+05 -0.1601895E+06 -0.4840851E-02 -0.2453888E-01  0.9356107E+04 -0.2997638E+05  0.5316162E-01  0.6459961E-02 -0.1488586E+05 -0.1679012E+06  0.2256775E-01  0.1973877E-02
  0.1500000E+01  0.2139566E+06  0.4769168E+06  0.6632996E-01  0.9417343E-01  0.2394218E+04  0.1428450E+04 -0.9965515E-01 -0.8171082E-02  0.1218277E+06  0.4838888E+06  0.9863281E-01  0.3918457E-01  0.7203000E+05 -0.1119238E+06  0.7720947E-02 -0.1380157E-01  0.1958801E+05 -0.8202789E+04 -0.2606201E-01  0.4486084E-02  0.7537123E+05 -0.1177230E+06 -0.1428223E-01 -0.2325439E-01
  0.1530000E+01  0.2115484E+06  0.4549198E+06  0.1162491E+00  0.3731266E+00 -0.1022130E+04  0.3657694E+04 -0.1444702E+00 -0.5137509E+00  0.1199536E+06  0.4614606E+06 -0.6295776E-01 -0.1343793E+00  0.9927928E+05  0.9975453E+04  0.1544189E-01  0.9805297E-02  0.1573893E+05  0.1553663E+05 -0.1562500E-01  0.4902649E-02  0.1043471E+06  0.1009127E+05  0.2319336E-01  0.2521362E-02
  0.1560000E+01  0.2143054E+06  0.4833649E+06  0.3359985E-01  0.1684113E-02 -0.2459457E+04 -0.2128454E+04 -0.3117371E-01 -0.3681244E-01  0.1230669E+06  0.4887653E+06 -0.1275940E+00 -0.1094733E+00  0.5624323E+05  0.1277487E+06  0.4524231E-02 -0.5903320E-02  0.2043925E+04  0.2780251E+05 -0.1440430E-01  0.1199707E-01  0.5941796E+05  0.1343894E+06 -0.1159668E-01  0.5903320E-02
  0.1590000E+01  0.1759583E+06  0.5101037E+06 -0.2403259E-02 -0.2285674E+00  0.1940433E+04 -0.3560519E+04  0.8544922E-03  0.1760170E+00  0.8609378E+05  0.5141032E+06  0.9533691E-01  0.2871103E+00 -0.3409961E+05  0.1424239E+06 -0.3967285E-02  0.8491516E-02 -0.1230421E+05  0.1778620E+05 -0.1107788E-01 -0.6793213E-03 -0.3588777E+05  0.1505138E+06 -0.2642822E-01 -0.4308838E-01
  0.1620000E+01  0.1527518E+06  0.4614434E+06  0.5564117E-01  0.6114304E-01  0.1705052E+04  0.3810582E+04 -0.1073761E+00 -0.1928101E-02  0.6410491E+05  0.4661588E+06 -0.1455383E+00 -0.8780274E-01 -0.8452770E+05  0.3886993E+05 -0.8941650E-02 -0.1933971E-01 -0.1445681E+05 -0.4187195E+04 -0.1751709E-01 -0.5805931E-01 -0.8956318E+05  0.4125526E+05 -0.2172852E-01  0.3816650E-01
  0.1650000E+01  0.1743073E+06  0.4550797E+06 -0.3540421E-01  0.6561127E-01 -0.2822273E+04  0.1839224E+04  0.5708313E-01 -0.1289062E+00  0.8557194E+05  0.4596355E+06 -0.8078003E-01 -0.1497528E+00 -0.6948595E+05 -0.8300764E+05 -0.4852295E-02  0.2714081E-01 -0.6640184E+04 -0.1993726E+05  0.1495361E-02 -0.5498657E-01 -0.7388269E+05 -0.8843233E+05  0.1306152E-01 -0.5438232E-02
  0.1680000E+01  0.1521955E+06  0.5146846E+06 -0.8251190E-01 -0.2145181E+00  0.1546288E+02 -0.5401718E+04  0.5133057E-01  0.2788294E+00  0.6478570E+05  0.5171610E+06  0.1355591E+00  0.2631153E+00  0.4939880E+04 -0.1436953E+06 -0.6187439E-02 -0.3896485E-01  0.6249876E+04 -0.1964575E+05  0.2548218E-01  0.3383789E-01  0.5547722E+04 -0.1536036E+06 -0.3829956E-02 -0.4183594E-01
  0.1710000E+01  0.1116742E+06  0.4635257E+06  0.7244110E-01  0.2393337E+00  0.2681067E+04  0.2049656E+04 -0.5960083E-01 -0.2857654E+00  0.2613219E+05  0.4680218E+06 -0.1335144E+00 -0.1148071E-01  0.6747435E+05 -0.6446806E+05  0.1181030E-01 -0.1480751E-01  0.1132874E+05 -0.1597267E+04  0.3784180E-02  0.7932129E-01  0.7275066E+05 -0.6860210E+05  0.1904297E-01 -0.2118713E-01
  0.1740000E+01  0.1392222E+06  0.4301913E+06 -0.7148552E-01 -0.7625908E-01 -0.2054510E+04  0.3483276E+04  0.8284378E-01  0.1097324E+00  0.5310154E+05  0.4358795E+06 -0.1024323E+00 -0.1362030E+00  0.6730109E+05  0.5174847E+05  0.2014160E-01  0.2466522E-01  0.6895655E+04  0.1338943E+05 -0.2825928E-01 -0.2033752E-01  0.7246330E+05  0.5707048E+05  0.4028320E-01 -0.2644409E-01
  0.1770000E+01  0.1290222E+06  0.5024129E+06 -0.1164169E+00 -0.5908012E-01 -0.8932947E+03 -0.4986463E+04  0.9985352E-01  0.7508240E-01  0.4417763E+05  0.5056850E+06  0.7116699E-01  0.4639984E-01  0.9043447E+04  0.1314275E+06 -0.2790260E-01  0.5271973E-01 -0.3035259E+04  0.1706230E+05  0.6439209E-02 -0.3899963E-01  0.8784901E+04  0.1431058E+06  0.2578735E-02 -0.7454223E-01
  0.1800000E+01  0.8428236E+05  0.4503768E+06  0.4325867E-01  0.3246735E+00  0.2596098E+04  0.1039527E+04  0.1480103E-02 -0.4079773E+00  0.1500529E+04  0.4568254E+06 -0.6130981E-01 -0.8305664E-01 -0.5416306E+05  0.7143365E+05 -0.3302002E-01  0.6111145E-02 -0.8409271E+04  0.3100651E+04  0.2984619E-01 -0.6042481E-01 -0.5995634E+05  0.7621060E+05  0.1208496E-01 -0.3559570E-01
  0.1830000E+01  0.1144508E+06  0.4117024E+06 -0.7439518E-01 -0.6864315E-01 -0.1472993E+04  0.3516961E+04  0.3989029E-01  0.1624734E+00  0.3077041E+05  0.4194262E+06 -0.2939606E-01 -0.1338657E+00 -0.6034055E+05 -0.3793790E+05 -0.5737305E-02 -0.9689484E-01 -0.5539175E+04 -0.9797037E+04  0.3570557E-01  0.9175690E-01 -0.6576855E+05 -0.4440906E+05 -0.1293945E-01 -0.6243714E-01
  0.1860000E+01  0.1024221E+06  0.4836112E+06  0.3303528E-01 -0.6239639E-01 -0.7080172E+03 -0.4080727E+04 -0.3979492E-01  0.2659332E-01  0.2048312E+05  0.4895545E+06 -0.3027344E-01  0.1975342E-01 -0.9872853E+04 -0.1189846E+06  0.3131294E-01 -0.4597778E-01  0.2107578E+04 -0.1308843E+05 -0.9830475E-02  0.5664917E-01 -0.8910053E+04 -0.1318865E+06 -0.1597595E-01 -0.5971435E-01
  0.1890000E+01  0.6664581E+05  0.4208795E+06  0.6649399E-01  0.1711457E+00  0.1864830E+04  0.1183923E+04 -0.2982330E-01 -0.1934528E+00 -0.1409996E+05  0.4316134E+06 -0.1440430E-01  0.8813232E-01  0.4657234E+05 -0.6473870E+05  0.2688599E-01  0.3505394E-01  0.6061653E+04 -0.2131840E+04 -0.2593994E-01  0.5952393E-01  0.5289784E+05 -0.6841497E+05 -0.2929688E-02  0.9113159E-02
  0.1920000E+01  0.9738365E+05  0.3990857E+06 -0.4269409E-01 -0.3175122E+00 -0.1416753E+04  0.2381284E+04  0.4117966E-01  0.4255811E+00  0.1574194E+05  0.4101493E+06  0.6498718E-01 -0.1898438E-01  0.5213469E+05  0.4076368E+05  0.1185608E-01 -0.3978516E-01  0.3797737E+04  0.8248421E+04 -0.1699829E-01  0.1180078E+00  0.5702198E+05  0.4973713E+05  0.7324219E-03  0.3750000E-01
  0.1950000E+01  0.7476986E+05  0.4533246E+06  0.6431580E-01  0.4323349E-01 -0.3254995E+02 -0.3320855E+04 -0.9172058E-01 -0.2389893E+00 -0.4714907E+04  0.4652499E+06 -0.5004883E-01  0.3772888E+00  0.1623627E+04  0.1078514E+06  0.6066132E-01  0.2433930E-01 -0.2209916E+04  0.9225121E+04 -0.9019470E-01 -0.1868591E-01 -0.9674049E+03  0.1203740E+06  0.4827881E-01 -0.4189453E-01
  0.1980000E+01  0.5806044E+05  0.3819747E+06 -0.5620956E-02 -0.5841568E-01  0.1124496E+04  0.1717129E+04  0.7961273E-02  0.1460467E+00 -0.2178279E+05  0.3987660E+06  0.6896973E-01  0.2554761E+00 -0.4380477E+05  0.4723048E+05  0.1666260E-01  0.1090743E+00 -0.4341538E+04  0.2630742E+03 -0.2374268E-01 -0.1602768E+00 -0.5024044E+05  0.4794194E+05 -0.1135254E-01  0.4229736E-03
  0.2010000E+01  0.8228766E+05  0.3896439E+06 -0.3242493E-02 -0.2268289E+00 -0.1308292E+04  0.5986874E+03 -0.1651764E-01  0.2043246E+00  0.2503198E+04  0.4057369E+06  0.1486206E-01  0.3328633E+00 -0.4056896E+05 -0.5754562E+05 -0.7345581E-01  0.1053520E+00 -0.1872638E+04 -0.7092566E+04  0.9243774E-01 -0.1475235E+00 -0.4369252E+05 -0.6917333E+05 -0.2197266E-01  0.1739612E+00
  0.2040000E+01  0.5363356E+05  0.4051141E+06  0.1044464E-01  0.9918915E-01  0.5556025E+03 -0.1963168E+04  0.2090454E-02 -0.1139282E+00 -0.2478202E+05  0.4256549E+06 -0.4647827E-01  0.2271094E+00  0.1100412E+05 -0.9125495E+05 -0.8978271E-01 -0.1066132E+00  0.2127063E+04 -0.5085026E+04  0.1225891E+00  0.7588989E-01  0.1508462E+05 -0.1008717E+06  0.8813477E-01 -0.2482764E+00
  0.2070000E+01  0.5696616E+05  0.3447018E+06  0.4125309E-01 -0.1089075E+00  0.1542319E+03  0.1646943E+04 -0.6983376E-01  0.1639929E+00 -0.2277340E+05  0.3676628E+06  0.8594704E-01  0.2759326E+00  0.4224402E+05 -0.1792411E+05  0.3367615E-01 -0.2333788E+00  0.2547277E+04  0.1292510E+04 -0.2191162E-01  0.2815075E+00  0.4797191E+05 -0.1461305E+05 -0.1525879E+00 -0.1591682E+00
  0.2100000E+01  0.6558888E+05  0.3723014E+06 -0.4512787E-01  0.2011769E+00 -0.7623167E+03 -0.3733411E+03 -0.7690430E-02 -0.1809013E+00 -0.1304095E+05  0.3962595E+06  0.1504822E+00  0.3859955E+00  0.2206602E+05  0.7480064E+05  0.3535423E+00  0.9837342E-01 -0.4451450E+02  0.5094147E+04 -0.3817215E+00  0.4146424E-01  0.2257488E+05  0.8715166E+05 -0.2306519E+00  0.1326343E+01
  0.2130000E+01  0.4465401E+05  0.3478981E+06  0.2837181E-01 -0.1057752E+00  0.8178954E+03 -0.8574467E+03 -0.6181335E-01  0.3035614E+00 -0.3470229E+05  0.3773813E+06 -0.1059875E+00  0.2661200E+00 -0.2228981E+05  0.6462698E+05 -0.5894470E-01 -0.3403203E+00 -0.1985188E+04  0.2921346E+04  0.1061096E+00  0.3343401E+00 -0.2710424E+05  0.7000319E+05 -0.1069336E+00  0.8853333E-01
  0.2160000E+01  0.5942096E+05  0.3176535E+06 -0.4718828E-01 -0.7835998E-02 -0.3425004E+03  0.1408058E+04  0.6252193E-01 -0.3910583E-01 -0.2062745E+05  0.3469066E+06 -0.8419037E-01  0.1297925E+00 -0.3515755E+05 -0.2145483E+05  0.3514099E-01 -0.5939209E-01 -0.1691070E+04 -0.2600897E+04 -0.4025269E-01  0.7428955E-01 -0.3926113E+05 -0.2908451E+05  0.1361084E-01  0.9815185E-01
  0.2190000E+01  0.5213423E+05  0.3374072E+06 -0.2121735E-01 -0.9064292E-01 -0.1519268E+03 -0.1098664E+04  0.1373291E-02  0.4648269E-01 -0.2730827E+05  0.3713058E+06  0.4974365E-02  0.7418518E-01 -0.1158723E+04 -0.7184773E+05  0.1172638E-01  0.2683365E-01  0.4603370E+03 -0.3304271E+04 -0.1879120E-01 -0.2626556E-01  0.6911343E+03 -0.8206645E+05 -0.2991486E-01 -0.6522949E-01
  0.2220000E+01  0.4777377E+05  0.2952121E+06 -0.1479006E-01 -0.1143265E-01  0.4287397E+03  0.7195714E+03  0.1533699E-01  0.7215271E-02 -0.3355200E+05  0.3311999E+06  0.2437210E-01  0.1924072E-01  0.2846112E+05 -0.2706966E+05 -0.9002686E-02  0.3645533E-01  0.1445355E+04 -0.3620616E+03  0.1095581E-01 -0.3789287E-01  0.3335664E+05 -0.2726603E+05  0.1312256E-01 -0.1957947E-01
  0.2250000E+01  0.5842270E+05  0.3006048E+06 -0.3726959E-02 -0.4709959E-01 -0.4696175E+03 -0.4618865E+02 -0.1376343E-01  0.3189468E-01 -0.2215669E+05  0.3376480E+06  0.8343506E-01  0.3362846E+00  0.1783641E+05  0.5128939E+05 -0.6065369E-02 -0.5012512E-02  0.4945708E+03  0.2624177E+04  0.7606506E-02  0.7690430E-02  0.1927172E+05  0.6150009E+05  0.3625488E-01 -0.4339600E-01
  0.2280000E+01  0.4737807E+05  0.2885258E+06 -0.4885292E-01 -0.3698181E-01  0.3257922E+03 -0.4752043E+03  0.2899170E-02  0.9108032E-01 -0.3463741E+05  0.3303639E+06  0.1222229E-01  0.2240478E-01 -0.1388339E+05  0.4974670E+05 -0.2708435E-02 -0.1304626E-01 -0.7506024E+03  0.1706841E+04  0.3585815E-02  0.1071533E-01 -0.1734938E+05  0.5605014E+05 -0.2062988E-01  0.5427246E-01
  0.2310000E+01  0.5678186E+05  0.2639370E+06  0.1430702E-01  0.1519180E-01 -0.1792309E+03  0.7398884E+03 -0.1876640E-01 -0.1033113E+00 -0.2578496E+05  0.3046116E+06  0.3013611E-01  0.3082068E+00 -0.2416780E+05 -0.1772557E+05  0.1205444E-02 -0.1233673E-02 -0.8825921E+03 -0.1058373E+04 -0.8544922E-03  0.2009125E-02 -0.2788559E+05 -0.2374530E+05 -0.2752686E-01 -0.1646072E-01
  0.2340000E+01  0.5370153E+05  0.2731566E+06 -0.1152420E-01  0.2619004E-01 -0.1028876E+02 -0.7301421E+03  0.3236389E-01 -0.7212525E-02 -0.2905325E+05  0.3188004E+06  0.1188965E+00 -0.1635315E-01  0.1043846E+04 -0.5143639E+05  0.4112244E-02  0.4445343E-02  0.1541420E+03 -0.1901504E+04 -0.6278992E-02 -0.2178040E-02  0.2371944E+04 -0.6058091E+05  0.7556915E-02 -0.1142578E-01