VARIABLES="X" "Y" "Z" "NX" "NY" "NZ" "A"
 ZONE N=       13824 , E=        3456  , F=FEPOINT,ET=QUADRILATERAL
  -0.6776440E+01   0.2946300E+00  -0.5000000E+01   0.0000000E+00   0.0000000E+00   0.0000000E+00   0.0000000E+00
  -0.6481810E+01   0.0000000E+00  -0.5000000E+01   0.0000000E+00   0.0000000E+00   0.0000000E+00   0.0000000E+00
  -0.7071070E+01   0.0000000E+00  -0.5000000E+01   0.0000000E+00   0.0000000E+00   0.0000000E+00   0.0000000E+00
  -0.6776440E+01  -0.2946300E+00  -0.5000000E+01   0.0000000E+00   0.0000000E+00   0.0000000E+00   0.0000000E+00
  -0.6481810E+01   0.5892600E+00  -0.5000000E+01   0.0000000E+00   0.0000000E+00   0.0000000E+00   0.0000000E+00
  -0.6187180E+01   0.2946300E+00  -0.5000000E+01   0.0000000E+00   0.0000000E+00   0.0000000E+00   0.0000000E+00
  -0.6776440E+01   0.2946300E+00  -0.5000000E+01   0.0000000E+00   0.0000000E+00   0.0000000E+00   0.0000000E+00
  -0.6481810E+01   0.0000000E+00  -0.5000000E+01   0.0000000E+00   0.0000000E+00   0.0000000E+00   0.0000000E+00
  -0.6187180E+01   0.8838800E+00  -0.5000000E+01   0.0000000E+00   0.0000000E+00   0.0000000E+00   0.0000000E+00
  -0.5892560E+01   0.5892600E+00  -0.5000000E+01   0.0000000E+00   0.0000000E+00   0.0000000E+00   0.0000000E+00
  -0.6481810E+01   0.5892600E+00  -0.5000000E+01   0.0000000E+00   0.0000000E+00   0.0000000E+00   0.0000000E+00
  -0.6187180E+01   0.2946300E+00  -0.5000000E+01   0.0000000E+00   0.0000000E+00   0.0000000E+00   0.0000000E+00
  -0.5892560E+01   0.1178510E+01  -0.5000000E+01   0.0000000E+00   0.0000000E+00   0.0000000E+00   0.0000000E+00
  -0.5597930E+01   0.8838800E+00  -0.5000000E+01   0.0000000E+00   0.0000000E+00   0.0000000E+00   0.0000000E+00
  -0.6187180E+01   0.8838800E+00  -0.5000000E+01   0.0000000E+00   0.0000000E+00   0.0000000E+00   0.0000000E+00
  -0.5892560E+01   0.5892600E+00  -0.5000000E+01   0.0000000E+00   0.0000000E+00   0.0000000E+00   0.0000000E+00
  -0.5597930E+01   0.1473140E+01  -0.5000000E+01   0.0000000E+00   0.0000000E+00   0.0000000E+00   0.0000000E+00
  -0.5303300E+01   0.1178510E+01  -0.5000000E+01   0.0000000E+00   0.0000000E+00   0.0000000E+00   0.0000000E+00
  -0.5892560E+01   0.1178510E+01  -0.5000000E+01   0.0000000E+00   0.0000000E+00   0.0000000E+00   0.0000000E+00
  -0.5597930E+01   0.8838800E+00  -0.5000000E+01   0.0000000E+00   0.0000000E+00   0.0000000E+00   0.0000000E+00
  -0.5303300E+01   0.1767770E+01  -0.5000000E+01   0.0000000E+00   0.0000000E+00   0.0000000E+00   0.0000000E+00
  -0.5008670E+01   0.1473140E+01  -0.5000000E+01   0.0000000E+00   0.0000000E+00   0.0000000E+00   0.0000000E+00
  -0.5597930E+01   0.1473140E+01  -0.5000000E+01   0.0000000E+00   0.0000000E+00   0.0000000E+00   0.0000000E+00
  -0.5303300E+01   0.1178510E+01  -0.5000000E+01   0.0000000E+00   0.0000000E+00   0.0000000E+00   0.0000000E+00
  -0.5008670E+01   0.2062390E+01  -0.5000000E+01   0.0000000E+00   0.0000000E+00   0.0000000E+00   0.0000000E+00
  -0.4714050E+01   0.1767770E+01  -0.5000000E+01   0.0000000E+00   0.0000000E+00   0.0000000E+00   0.0000000E+00
  -0.5303300E+01   0.1767770E+01  -0.5000000E+01   0.0000000E+00   0.0000000E+00   0.0000000E+00   0.0000000E+00
  -0.5008670E+01   0.1473140E+01  -0.5000000E+01   0.0000000E+00   0.0000000E+00   0.0000000E+00   0.0000000E+00
  -0.4714050E+01   0.2357020E+01  -0.5000000E+01   0.0000000E+00   0.0000000E+00   0.0000000E+00   0.0000000E+00
  -0.4419420E+01   0.2062390E+01  -0.5000000E+01   0.0000000E+00   0.0000000E+00   0.0000000E+00   0.0000000E+00
  -0.5008670E+01   0.2062390E+01  -0.5000000E+01   0.0000000E+00   0.0000000E+00   0.0000000E+00   0.0000000E+00
  -0.4714050E+01   0.1767770E+01  -0.5000000E+01   0.0000000E+00   0.0000000E+00   0.0000000E+00   0.0000000E+00
  -0.4419420E+01   0.2651650E+01  -0.5000000E+01   0.0000000E+00   0.0000000E+00   0.0000000E+00   0.0000000E+00
  -0.4124790E+01   0.2357020E+01  -0.5000000E+01   0.0000000E+00   0.0000000E+00   0.0000000E+00   0.0000000E+00
  -0.4714050E+01   0.2357020E+01  -0.5000000E+01   0.0000000E+00   0.0000000E+00   0.0000000E+00   0.0000000E+00
  -0.4419420E+01   0.2062390E+01  -0.5000000E+01   0.0000000E+00   0.0000000E+00   0.0000000E+00   0.0000000E+00
  -0.4124790E+01   0.2946280E+01  -0.5000000E+01   0.0000000E+00   0.0000000E+00   0.0000000E+00   0.0000000E+00
  -0.3830160E+01   0.2651650E+01  -0.5000000E+01   0.0000000E+00   0.0000000E+00   0.0000000E+00   0.0000000E+00
  -0.4419420E+01   0.2651650E+01  -0.5000000E+01   0.0000000E+00   0.0000000E+00   0.0000000E+00   0.0000000E+00
  -0.4124790E+01   0.2357020E+01  -0.5000000E+01   0.0000000E+00   0.0000000E+00   0.0000000E+00   0.0000000E+00
  -0.3830160E+01   0.3240910E+01  -0.5000000E+01   0.0000000E+00   0.0000000E+00   0.0000000E+00   0.0000000E+00
  -0.3535530E+01   0.2946280E+01  -0.5000000E+01   0.0000000E+00   0.0000000E+00   0.0000000E+00   0.0000000E+00
  -0.4124790E+01   0.2946280E+01  -0.5000000E+01   0.0000000E+00   0.0000000E+00   0.0000000E+00   0.0000000E+00
  -0.3830160E+01   0.2651650E+01  -0.5000000E+01   0.0000000E+00   0.0000000E+00   0.0000000E+00   0.0000000E+00
  -0.3535530E+01   0.3535530E+01  -0.5000000E+01   0.0000000E+00   0.0000000E+00   0.0000000E+00   0.0000000E+00
  -0.3240910E+01   0.3240910E+01  -0.5000000E+01   0.0000000E+00   0.0000000E+00   0.0000000E+00   0.0000000E+00
  -0.3830160E+01   0.3240910E+01  -0.5000000E+01   0.0000000E+00   0.0000000E+00   0.0000000E+00   0.0000000E+00
  -0.3535530E+01   0.2946280E+01  -0.5000000E+01   0.0000000E+00   0.0000000E+00   0.0000000E+00   0.0000000E+00
  -0.3240910E+01   0.3830160E+01  -0.5000000E+01   0.0000000E+00   0.0000000E+00   0.0000000E+00   0.0000000E+00
  -0.2946280E+01   0.3535530E+01  -0.5000000E+01   0.0000000E+00   0.0000000E+00   0.0000000E+00   0.0000000E+00
  -0.3535530E+01   0.3535530E+01  -0.5000000E+01   0.0000000E+00   0.0000000E+00   0.0000000E+00   0.0000000E+00
  -0.3240910E+01   0.3240910E+01  -0.5000000E+01   0.0000000E+00   0.0000000E+00   0.0000000E+00   0.0000000E+00
  -0.2946280E+01   0.4124790E+01  -0.5000000E+01   0.0000000E+00   0.0000000E+00   0.0000000E+00   0.0000000E+00
  -0.2651650E+01   0.3830160E+01  -0.5000000E+01   0.0000000E+00   0.0000000E+00   0.0000000E+00   0.0000000E+00
  -0.3240910E+01   0.3830160E+01  -0.5000000E+01   0.0000000E+00   0.0000000E+00   0.0000000E+00   0.0000000E+00
  -0.2946280E+01   0.3535530E+01  -0.5000000E+01   0.0000000E+00   0.0000000E+00   0.0000000E+00   0.0000000E+00
  -0.2651650E+01   0.4419420E+01  -0.5000000E+01   0.0000000E+00   0.0000000E+00   0.0000000E+00   0.0000000E+00
  -0.2357020E+01   0.4124790E+01  -0.5000000E+01   0.0000000E+00   0.0000000E+00   0.0000000E+00   0.0000000E+00
  -0.2946280E+01   0.4124790E+01  -0.5000000E+01   0.0000000E+00   0.0000000E+00   0.0000000E+00   0.0000000E+00
  -0.2651650E+01   0.3830160E+01  -0.5000000E+01   0.0000000E+00   0.0000000E+00   0.0000000E+00   0.0000000E+00
  -0.2357020E+01   0.4714050E+01  -0.5000000E+01   0.0000000E+00   0.0000000E+00   0.0000000E+00   0.0000000E+00
  -0.2062390E+01   0.4419420E+01  -0.5000000E+01   0.0000000E+00   0.0000000E+00   0.0000000E+00   0.0000000E+00
  -0.2651650E+01   0.4419420E+01  -0.5000000E+01   0.0000000E+00   0.0000000E+00   0.0000000E+00   0.0000000E+00
  -0.2357020E+01   0.4124790E+01  -0.5000000E+01   0.0000000E+00   0.0000000E+00   0.0000000E+00   0.0000000E+00
  -0.2062390E+01   0.5008670E+01  -0.5000000E+01   0.0000000E+00   0.0000000E+00   0.0000000E+00   0.0000000E+00
  -0.1767770E+01   0.4714050E+01  -0.5000000E+01   0.0000000E+00   0.0000000E+00   0.0000000E+00   0.0000000E+00
  -0.2357020E+01   0.4714050E+01  -0.5000000E+01   0.0000000E+00   0.0000000E+00   0.0000000E+00   0.0000000E+00
  -0.2062390E+01   0.4419420E+01  -0.5000000E+01   0.0000000E+00   0.0000000E+00   0.0000000E+00   0.0000000E+00
  -0.1767770E+01   0.5303300E+01  -0.5000000E+01   0.0000000E+00   0.0000000E+00   0.0000000E+00   0.0000000E+00
  -0.1473140E+01   0.5008670E+01  -0.5000000E+01   0.0000000E+00   0.0000000E+00   0.0000000E+00   0.0000000E+00
  -0.2062390E+01   0.5008670E+01  -0.5000000E+01   0.0000000E+00   0.0000000E+00   0.0000000E+00   0.0000000E+00
  -0.1767770E+01   0.4714050E+01  -0.5000000E+01   0.0000000E+00   0.0000000E+00   0.0000000E+00   0.0000000E+00
  -0.1473140E+01   0.5597930E+01  -0.5000000E+01   0.0000000E+00   0.0000000E+00   0.0000000E+00   0.0000000E+00
  -0.1178510E+01   0.5303300E+01  -0.5000000E+01   0.0000000E+00   0.0000000E+00   0.0000000E+00   0.0000000E+00
  -0.1767770E+01   0.5303300E+01  -0.5000000E+01   0.0000000E+00   0.0000000E+00   0.0000000E+00   0.0000000E+00
  -0.1473140E+01   0.5008670E+01  -0.5000000E+01   0.0000000E+00   0.0000000E+00   0.0000000E+00   0.0000000E+00
  -0.1178510E+01   0.5892560E+01  -0.5000000E+01   0.0000000E+00   0.0000000E+00   0.0000000E+00   0.0000000E+00
  -0.8838800E+00   0.5597930E+01  -0.5000000E+01   0.0000000E+00   0.0000000E+00   0.0000000E+00   0.0000000E+00
  -0.1473140E+01   0.5597930E+01  -0.5000000E+01   0.0000000E+00   0.0000000E+00   0.0000000E+00   0.0000000E+00
  -0.1178510E+01   0.5303300E+01  -0.5000000E+01   0.0000000E+00   0.0000000E+00   0.0000000E+00   0.0000000E+00
  -0.8838800E+00   0.6187180E+01  -0.5000000E+01   0.0000000E+00   0.0000000E+00   0.0000000E+00   0.0000000E+00
  -0.5892600E+00   0.5892560E+01  -0.5000000E+01   0.0000000E+00   0.0000000E+00   0.0000000E+00   0.0000000E+00
  -0.1178510E+01   0.5892560E+01  -0.5000000E+01   0.0000000E+00   0.0000000E+00   0.0000000E+00   0.0000000E+00
  -0.8838800E+00   0.5597930E+01  -0.5000000E+01   0.0000000E+00   0.0000000E+00   0.0000000E+00   0.0000000E+00
  -0.5892600E+00   0.6481810E+01  -0.5000000E+01   0.0000000E+00   0.0000000E+00   0.0000000E+00   0.0000000E+00
  -0.2946300E+00   0.6187180E+01  -0.5000000E+01   0.0000000E+00   0.0000000E+00   0.0000000E+00   0.0000000E+00
  -0.8838800E+00   0.6187180E+01  -0.5000000E+01   0.0000000E+00   0.0000000E+00   0.0000000E+00   0.0000000E+00
  -0.5892600E+00   0.5892560E+01  -0.5000000E+01   0.0000000E+00   0.0000000E+00   0.0000000E+00   0.0000000E+00
  -0.2946300E+00   0.6776440E+01  -0.5000000E+01   0.0000000E+00   0.0000000E+00   0.0000000E+00   0.0000000E+00
   0.0000000E+00   0.6481810E+01  -0.5000000E+01   0.0000000E+00   0.0000000E+00   0.0000000E+00   0.0000000E+00
  -0.5892600E+00   0.6481810E+01  -0.5000000E+01   0.0000000E+00   0.0000000E+00   0.0000000E+00   0.0000000E+00
  -0.2946300E+00   0.6187180E+01  -0.5000000E+01   0.0000000E+00   0.0000000E+00   0.0000000E+00   0.0000000E+00
   0.0000000E+00   0.7071070E+01  -0.5000000E+01   0.0000000E+00   0.0000000E+00   0.0000000E+00   0.0000000E+00
   0.2946300E+00   0.6776440E+01  -0.5000000E+01   0.0000000E+00   0.0000000E+00   0.0000000E+00   0.0000000E+00
  -0.2946300E+00   0.6776440E+01  -0.5000000E+01   0.0000000E+00   0.0000000E+00   0.0000000E+00   0.0000000E+00
   0.0000000E+00   0.6481810E+01  -0.5000000E+01   0.0000000E+00   0.0000000E+00   0.0000000E+00   0.0000000E+00
  -0.6481810E+01   0.0000000E+00  -0.5000000E+01   0.0000000E+00   0.0000000E+00   0.0000000E+00   0.0000000E+00
  -0.6187180E+01  -0.2946300E+00  -0.5000000E+01   0.0000000E+00   0.0000000E+00   0.0000000E+00   0.0000000E+00
  -0.6776440E+01  -0.2946300E+00  -0.5000000E+01   0.0000000E+00   0.0000000E+00   0.0000000E+00   0.0000000E+00
  -0.6481810E+01  -0.5892600E+00  -0.5000000E+01   0.0000000E+00   0.0000000E+00   0.0000000E+00   0.0000000E+00
  -0.6187180E+01   0.2946300E+00  -0.5000000E+01   0.0000000E+00   0.0000000E+00   0.0000000E+00   0.0000000E+00
  -0.5892560E+01   0.0000000E+00  -0.5000000E+01   0.0000000E+00   0.0000000E+00   0.0000000E+00   0.0000000E+00
  -0.6481810E+01   0.0000000E+00  -0.5000000E+01   0.0000000E+00   0.0000000E+00   0.0000000E+00   0.0000000E+00
  -0.6187180E+01  -0.2946300E+00  -0.5000000E+01   0.0000000E+00   0.0000000E+00   0.0000000E+00   0.0000000E+00
  -0.5892560E+01   0.5892600E+00  -0.5000000E+01   0.0000000E+00   0.0000000E+00   0.0000000E+00   0.0000000E+00
  -0.5597930E+01   0.2946300E+00  -0.5000000E+01   0.0000000E+00   0.0000000E+00   0.0000000E+00   0.0000000E+00
  -0.6187180E+01   0.2946300E+00  -0.5000000E+01   0.0000000E+00   0.0000000E+00   0.0000000E+00   0.0000000E+00
  -0.5892560E+01   0.0000000E+00  -0.5000000E+01   0.0000000E+00   0.0000000E+00   0.0000000E+00   0.0000000E+00
  -0.5597930E+01   0.8838800E+00  -0.5000000E+01   0.0000000E+00   0.0000000E+00   0.0000000E+00   0.0000000E+00
  -0.5303300E+01   0.5892600E+00  -0.5000000E+01   0.0000000E+00   0.0000000E+00   0.0000000E+00   0.0000000E+00
  -0.5892560E+01   0.5892600E+00  -0.5000000E+01   0.0000000E+00   0.0000000E+00   0.0000000E+00   0.0000000E+00
  -0.5597930E+01   0.2946300E+00  -0.5000000E+01   0.0000000E+00   0.0000000E+00   0.0000000E+00   0.0000000E+00
  -0.5303300E+01   0.1178510E+01  -0.5000000E+01   0.0000000E+00   0.0000000E+00   0.0000000E+00   0.0000000E+00
  -0.5008670E+01   0.8838800E+00  -0.5000000E+01   0.0000000E+00   0.0000000E+00   0.0000000E+00   0.0000000E+00
  -0.5597930E+01   0.8838800E+00  -0.5000000E+01   0.0000000E+00   0.0000000E+00   0.0000000E+00   0.0000000E+00
  -0.5303300E+01   0.5892600E+00  -0.5000000E+01   0.0000000E+00   0.0000000E+00   0.0000000E+00   0.0000000E+00
  -0.5008670E+01   0.1473140E+01  -0.5000000E+01   0.0000000E+00   0.0000000E+00   0.0000000E+00   0.0000000E+00
  -0.4714050E+01   0.1178510E+01  -0.5000000E+01   0.0000000E+00   0.0000000E+00   0.0000000E+00   0.0000000E+00
  -0.5303300E+01   0.1178510E+01  -0.5000000E+01   0.0000000E+00   0.0000000E+00   0.0000000E+00   0.0000000E+00
  -0.5008670E+01   0.8838800E+00  -0.5000000E+01   0.0000000E+00   0.0000000E+00   0.0000000E+00   0.0000000E+00
  -0.4714050E+01   0.1767770E+01  -0.5000000E+01   0.0000000E+00   0.0000000E+00   0.0000000E+00   0.0000000E+00
  -0.4419420E+01   0.1473140E+01  -0.5000000E+01   0.0000000E+00   0.0000000E+00   0.0000000E+00   0.0000000E+00
  -0.5008670E+01   0.1473140E+01  -0.5000000E+01   0.0000000E+00   0.0000000E+00   0.0000000E+00   0.0000000E+00
  -0.4714050E+01   0.1178510E+01  -0.5000000E+01   0.0000000E+00   0.0000000E+00   0.0000000E+00   0.0000000E+00
  -0.4419420E+01   0.2062390E+01  -0.5000000E+01   0.0000000E+00   0.0000000E+00   0.0000000E+00   0.0000000E+00
  -0.4124790E+01   0.1767770E+01  -0.5000000E+01   0.0000000E+00   0.0000000E+00   0.0000000E+00   0.0000000E+00
  -0.4714050E+01   0.1767770E+01  -0.5000000E+01   0.0000000E+00   0.0000000E+00   0.0000000E+00   0.0000000E+00
  -0.4419420E+01   0.1473140E+01  -0.5000000E+01   0.0000000E+00   0.0000000E+00   0.0000000E+00   0.0000000E+00
  -0.4124790E+01   0.2357020E+01  -0.5000000E+01   0.0000000E+00   0.0000000E+00   0.0000000E+00   0.0000000E+00
  -0.3830160E+01   0.2062390E+01  -0.5000000E+01   0.0000000E+00   0.0000000E+00   0.0000000E+00   0.0000000E+00
  -0.4419420E+01   0.2062390E+01  -0.5000000E+01   0.0000000E+00   0.0000000E+00   0.0000000E+00   0.0000000E+00
  -0.4124790E+01   0.1767770E+01  -0.5000000E+01   0.0000000E+00   0.0000000E+00   0.0000000E+00   0.0000000E+00
  -0.3830160E+01   0.2651650E+01  -0.5000000E+01   0.0000000E+00   0.0000000E+00   0.0000000E+00   0.0000000E+00
  -0.3535530E+01   0.2357020E+01  -0.5000000E+01   0.0000000E+00   0.0000000E+00   0.0000000E+00   0.0000000E+00
  -0.4124790E+01   0.2357020E+01  -0.5000000E+01   0.0000000E+00   0.0000000E+00   0.0000000E+00   0.0000000E+00
  -0.3830160E+01   0.2062390E+01  -0.5000000E+01   0.0000000E+00   0.0000000E+00   0.0000000E+00   0.0000000E+00
  -0.3535530E+01   0.2946280E+01  -0.5000000E+01   0.0000000E+00   0.0000000E+00   0.0000000E+00   0.0000000E+00
  -0.3240910E+01   0.2651650E+01  -0.5000000E+01   0.0000000E+00   0.0000000E+00   0.0000000E+00   0.0000000E+00
  -0.3830160E+01   0.2651650E+01  -0.5000000E+01   0.0000000E+00   0.0000000E+00   0.0000000E+00   0.0000000E+00
  -0.3535530E+01   0.2357020E+01  -0.5000000E+01   0.0000000E+00   0.0000000E+00   0.0000000E+00   0.0000000E+00
  -0.3240910E+01   0.3240910E+01  -0.5000000E+01   0.0000000E+00   0.0000000E+00   0.0000000E+00   0.0000000E+00
  -0.2946280E+01   0.2946280E+01  -0.5000000E+01   0.0000000E+00   0.0000000E+00   0.0000000E+00   0.0000000E+00
  -0.3535530E+01   0.2946280E+01  -0.5000000E+01   0.0000000E+00   0.0000000E+00   0.0000000E+00   0.0000000E+00
  -0.3240910E+01   0.2651650E+01  -0.5000000E+01   0.0000000E+00   0.0000000E+00   0.0000000E+00   0.0000000E+00
  -0.2946280E+01   0.3535530E+01  -0.5000000E+01   0.0000000E+00   0.0000000E+00   0.0000000E+00   0.0000000E+00
  -0.2651650E+01   0.3240910E+01  -0.5000000E+01   0.0000000E+00   0.0000000E+00   0.0000000E+00   0.0000000E+00
  -0.3240910E+01   0.3240910E+01  -0.5000000E+01   0.0000000E+00   0.0000000E+00   0.0000000E+00   0.0000000E+00
  -0.2946280E+01   0.2946280E+01  -0.5000000E+01   0.0000000E+00   0.0000000E+00   0.0000000E+00   0.0000000E+00
  -0.2651650E+01   0.3830160E+01  -0.5000000E+01   0.0000000E+00   0.0000000E+00   0.0000000E+00   0.0000000E+00
  -0.2357020E+01   0.3535530E+01  -0.5000000E+01   0.0000000E+00   0.0000000E+00   0.0000000E+00   0.0000000E+00
  -0.2946280E+01   0.3535530E+01  -0.5000000E+01   0.0000000E+00   0.0000000E+00   0.0000000E+00   0.0000000E+00
  -0.2651650E+01   0.3240910E+01  -0.5000000E+01   0.0000000E+00   0.0000000E+00   0.0000000E+00   0.0000000E+00
  -0.2357020E+01   0.4124790E+01  -0.5000000E+01   0.0000000E+00   0.0000000E+00   0.0000000E+00   0.0000000E+00
  -0.2062390E+01   0.3830160E+01  -0.5000000E+01   0.0000000E+00   0.0000000E+00   0.0000000E+00   0.0000000E+00
  -0.2651650E+01   0.3830160E+01  -0.5000000E+01   0.0000000E+00   0.0000000E+00   0.0000000E+00   0.0000000E+00
  -0.2357020E+01   0.3535530E+01  -0.5000000E+01   0.0000000E+00   0.0000000E+00   0.0000000E+00   0.0000000E+00
  -0.2062390E+01   0.4419420E+01  -0.5000000E+01   0.0000000E+00   0.0000000E+00   0.0000000E+00   0.0000000E+00
  -0.1767770E+01   0.4124790E+01  -0.5000000E+01   0.0000000E+00   0.0000000E+00   0.0000000E+00   0.0000000E+00
  -0.2357020E+01   0.4124790E+01  -0.5000000E+01   0.0000000E+00   0.0000000E+00   0.0000000E+00   0.0000000E+00
  -0.2062390E+01   0.3830160E+01  -0.5000000E+01   0.0000000E+00   0.0000000E+00   0.0000000E+00   0.0000000E+00
  -0.1767770E+01   0.4714050E+01  -0.5000000E+01   0.0000000E+00   0.0000000E+00   0.0000000E+00   0.0000000E+00
  -0.1473140E+01   0.4419420E+01  -0.5000000E+01   0.0000000E+00   0.0000000E+00   0.0000000E+00   0.0000000E+00
  -0.2062390E+01   0.4419420E+01  -0.5000000E+01   0.0000000E+00   0.0000000E+00   0.0000000E+00   0.0000000E+00
  -0.1767770E+01   0.4124790E+01  -0.5000000E+01   0.0000000E+00   0.0000000E+00   0.0000000E+00   0.0000000E+00
  -0.1473140E+01   0.5008670E+01  -0.5000000E+01   0.0000000E+00   0.0000000E+00   0.0000000E+00   0.0000000E+00
  -0.1178510E+01   0.4714050E+01  -0.5000000E+01   0.0000000E+00   0.0000000E+00   0.0000000E+00   0.0000000E+00
  -0.1767770E+01   0.4714050E+01  -0.5000000E+01   0.0000000E+00   0.0000000E+00   0.0000000E+00   0.0000000E+00
  -0.1473140E+01   0.4419420E+01  -0.5000000E+01   0.0000000E+00   0.0000000E+00   0.0000000E+00   0.0000000E+00
  -0.1178510E+01   0.5303300E+01  -0.5000000E+01   0.0000000E+00   0.0000000E+00   0.0000000E+00   0.0000000E+00
  -0.8838800E+00   0.5008670E+01  -0.5000000E+01   0.0000000E+00   0.0000000E+00   0.0000000E+00   0.0000000E+00
  -0.1473140E+01   0.5008670E+01  -0.5000000E+01   0.0000000E+00   0.0000000E+00   0.0000000E+00   0.0000000E+00
  -0.1178510E+01   0.4714050E+01  -0.5000000E+01   0.0000000E+00   0.0000000E+00   0.0000000E+00   0.0000000E+00
  -0.8838800E+00   0.5597930E+01  -0.5000000E+01   0.0000000E+00   0.0000000E+00   0.0000000E+00   0.0000000E+00
  -0.5892600E+00   0.5303300E+01  -0.5000000E+01   0.0000000E+00   0.0000000E+00   0.0000000E+00   0.0000000E+00
  -0.1178510E+01   0.5303300E+01  -0.5000000E+01   0.0000000E+00   0.0000000E+00   0.0000000E+00   0.0000000E+00
  -0.8838800E+00   0.5008670E+01  -0.5000000E+01   0.0000000E+00   0.0000000E+00   0.0000000E+00   0.0000000E+00
  -0.5892600E+00   0.5892560E+01  -0.5000000E+01   0.0000000E+00   0.0000000E+00   0.0000000E+00   0.0000000E+00
  -0.2946300E+00   0.5597930E+01  -0.5000000E+01   0.0000000E+00   0.0000000E+00   0.0000000E+00   0.0000000E+00
  -0.8838800E+00   0.5597930E+01  -0.5000000E+01   0.0000000E+00   0.0000000E+00   0.0000000E+00   0.0000000E+00
  -0.5892600E+00   0.5303300E+01  -0.5000000E+01   0.0000000E+00   0.0000000E+00   0.0000000E+00   0.0000000E+00
  -0.2946300E+00   0.6187180E+01  -0.5000000E+01   0.0000000E+00   0.0000000E+00   0.0000000E+00   0.0000000E+00
   0.0000000E+00   0.5892560E+01  -0.5000000E+01   0.0000000E+00   0.0000000E+00   0.0000000E+00   0.0000000E+00
  -0.5892600E+00   0.5892560E+01  -0.5000000E+01   0.0000000E+00   0.0000000E+00   0.0000000E+00   0.0000000E+00
  -0.2946300E+00   0.5597930E+01  -0.5000000E+01   0.0000000E+00   0.0000000E+00   0.0000000E+00   0.0000000E+00
   0.0000000E+00   0.6481810E+01  -0.5000000E+01   0.0000000E+00   0.0000000E+00   0.0000000E+00   0.0000000E+00
   0.2946300E+00   0.6187180E+01  -0.5000000E+01   0.0000000E+00   0.0000000E+00   0.0000000E+00   0.0000000E+00
  -0.2946300E+00   0.6187180E+01  -0.5000000E+01   0.0000000E+00   0.0000000E+00   0.0000000E+00   0.0000000E+00
   0.0000000E+00   0.5892560E+01  -0.5000000E+01   0.0000000E+00   0.0000000E+00   0.0000000E+00   0.0000000E+00
   0.2946300E+00   0.6776440E+01  -0.5000000E+01   0.0000000E+00   0.0000000E+00   0.0000000E+00   0.0000000E+00
   0.5892600E+00   0.6481810E+01  -0.5000000E+01   0.0000000E+00   0.0000000E+00   0.0000000E+00   0.0000000E+00
   0.0000000E+00   0.6481810E+01  -0.5000000E+01   0.0000000E+00   0.0000000E+00   0.0000000E+00   0.0000000E+00
   0.2946300E+00   0.6187180E+01  -0.5000000E+01   0.0000000E+00   0.0000000E+00   0.0000000E+00   0.0000000E+00
  -0.6187180E+01  -0.2946300E+00  -0.5000000E+01   0.0000000E+00   0.0000000E+00   0.0000000E+00   0.0000000E+00
  -0.5892560E+01  -0.5892600E+00  -0.5000000E+01   0.0000000E+00   0.0000000E+00   0.0000000E+00   0.0000000E+00
  -0.6481810E+01  -0.5892600E+00  -0.5000000E+01   0.0000000E+00   0.0000000E+00   0.0000000E+00   0.0000000E+00
  -0.6187180E+01  -0.8838800E+00  -0.5000000E+01   0.0000000E+00   0.0000000E+00   0.0000000E+00   0.0000000E+00
  -0.5892560E+01   0.0000000E+00  -0.5000000E+01   0.0000000E+00   0.0000000E+00   0.0000000E+00   0.0000000E+00
  -0.5597930E+01  -0.2946300E+00  -0.5000000E+01   0.0000000E+00   0.0000000E+00   0.0000000E+00   0.0000000E+00
  -0.6187180E+01  -0.2946300E+00  -0.5000000E+01   0.0000000E+00   0.0000000E+00   0.0000000E+00   0.0000000E+00
  -0.5892560E+01  -0.5892600E+00  -0.5000000E+01   0.0000000E+00   0.0000000E+00   0.0000000E+00   0.0000000E+00
  -0.5597930E+01   0.2946300E+00  -0.5000000E+01   0.0000000E+00   0.0000000E+00   0.0000000E+00   0.0000000E+00
  -0.5303300E+01   0.0000000E+00  -0.5000000E+01   0.0000000E+00   0.0000000E+00   0.0000000E+00   0.0000000E+00
  -0.5892560E+01   0.0000000E+00  -0.5000000E+01   0.0000000E+00   0.0000000E+00   0.0000000E+00   0.0000000E+00
  -0.5597930E+01  -0.2946300E+00  -0.5000000E+01   0.0000000E+00   0.0000000E+00   0.0000000E+00   0.0000000E+00
  -0.5303300E+01   0.5892600E+00  -0.5000000E+01   0.0000000E+00   0.0000000E+00   0.0000000E+00   0.0000000E+00
  -0.5008670E+01   0.2946300E+00  -0.5000000E+01   0.0000000E+00   0.0000000E+00   0.0000000E+00   0.0000000E+00
  -0.5597930E+01   0.2946300E+00  -0.5000000E+01   0.0000000E+00   0.0000000E+00   0.0000000E+00   0.0000000E+00
  -0.5303300E+01   0.0000000E+00  -0.5000000E+01   0.0000000E+00   0.0000000E+00   0.0000000E+00   0.0000000E+00
  -0.5008670E+01   0.8838800E+00  -0.5000000E+01   0.0000000E+00   0.0000000E+00   0.0000000E+00   0.0000000E+00
  -0.4714050E+01   0.5892600E+00  -0.5000000E+01   0.0000000E+00   0.0000000E+00   0.0000000E+00   0.0000000E+00
  -0.5303300E+01   0.5892600E+00  -0.5000000E+01   0.0000000E+00   0.0000000E+00   0.0000000E+00   0.0000000E+00
  -0.5008670E+01   0.2946300E+00  -0.5000000E+01   0.0000000E+00   0.0000000E+00   0.0000000E+00   0.0000000E+00
  -0.4714050E+01   0.1178510E+01  -0.5000000E+01   0.0000000E+00   0.0000000E+00   0.0000000E+00   0.0000000E+00
  -0.4419420E+01   0.8838800E+00  -0.5000000E+01   0.0000000E+00   0.0000000E+00   0.0000000E+00   0.0000000E+00
  -0.5008670E+01   0.8838800E+00  -0.5000000E+01   0.0000000E+00   0.0000000E+00   0.0000000E+00   0.0000000E+00
  -0.4714050E+01   0.5892600E+00  -0.5000000E+01   0.0000000E+00   0.0000000E+00   0.0000000E+00   0.0000000E+00
  -0.4419420E+01   0.1473140E+01  -0.5000000E+01   0.0000000E+00   0.0000000E+00   0.0000000E+00   0.0000000E+00
  -0.4124790E+01   0.1178510E+01  -0.5000000E+01   0.0000000E+00   0.0000000E+00   0.0000000E+00   0.0000000E+00
  -0.4714050E+01   0.1178510E+01  -0.5000000E+01   0.0000000E+00   0.0000000E+00   0.0000000E+00   0.0000000E+00
  -0.4419420E+01   0.8838800E+00  -0.5000000E+01   0.0000000E+00   0.0000000E+00   0.0000000E+00   0.0000000E+00
  -0.4124790E+01   0.1767770E+01  -0.5000000E+01   0.0000000E+00   0.0000000E+00   0.0000000E+00   0.0000000E+00
  -0.3830160E+01   0.1473140E+01  -0.5000000E+01   0.0000000E+00   0.0000000E+00   0.0000000E+00   0.0000000E+00
  -0.4419420E+01   0.1473140E+01  -0.5000000E+01   0.0000000E+00   0.0000000E+00   0.0000000E+00   0.0000000E+00
  -0.4124790E+01   0.1178510E+01  -0.5000000E+01   0.0000000E+00   0.0000000E+00   0.0000000E+00   0.0000000E+00
  -0.3830160E+01   0.2062390E+01  -0.5000000E+01   0.0000000E+00   0.0000000E+00   0.0000000E+00   0.0000000E+00
  -0.3535530E+01   0.1767770E+01  -0.5000000E+01   0.0000000E+00   0.0000000E+00   0.0000000E+00   0.0000000E+00
  -0.4124790E+01   0.1767770E+01  -0.5000000E+01   0.0000000E+00   0.0000000E+00   0.0000000E+00   0.0000000E+00
  -0.3830160E+01   0.1473140E+01  -0.5000000E+01   0.0000000E+00   0.0000000E+00   0.0000000E+00   0.0000000E+00
  -0.3535530E+01   0.2357020E+01  -0.5000000E+01   0.0000000E+00   0.0000000E+00   0.0000000E+00   0.0000000E+00
  -0.3240910E+01   0.2062390E+01  -0.5000000E+01   0.0000000E+00   0.0000000E+00   0.0000000E+00   0.0000000E+00
  -0.3830160E+01   0.2062390E+01  -0.5000000E+01   0.0000000E+00   0.0000000E+00   0.0000000E+00   0.0000000E+00
  -0.3535530E+01   0.1767770E+01  -0.5000000E+01   0.0000000E+00   0.0000000E+00   0.0000000E+00   0.0000000E+00
  -0.3240910E+01   0.2651650E+01  -0.5000000E+01   0.0000000E+00   0.0000000E+00   0.0000000E+00   0.0000000E+00
  -0.2946280E+01   0.2357020E+01  -0.5000000E+01   0.0000000E+00   0.0000000E+00   0.0000000E+00   0.0000000E+00
  -0.3535530E+01   0.2357020E+01  -0.5000000E+01   0.0000000E+00   0.0000000E+00   0.0000000E+00   0.0000000E+00
  -0.3240910E+01   0.2062390E+01  -0.5000000E+01   0.0000000E+00   0.0000000E+00   0.0000000E+00   0.0000000E+00
  -0.2946280E+01   0.2946280E+01  -0.5000000E+01   0.0000000E+00   0.0000000E+00   0.0000000E+00   0.0000000E+00
  -0.2651650E+01   0.2651650E+01  -0.5000000E+01   0.0000000E+00   0.0000000E+00   0.0000000E+00   0.0000000E+00
  -0.3240910E+01   0.2651650E+01  -0.5000000E+01   0.0000000E+00   0.0000000E+00   0.0000000E+00   0.0000000E+00
  -0.2946280E+01   0.2357020E+01  -0.5000000E+01   0.0000000E+00   0.0000000E+00   0.0000000E+00   0.0000000E+00
  -0.2651650E+01   0.3240910E+01  -0.5000000E+01   0.0000000E+00   0.0000000E+00   0.0000000E+00   0.0000000E+00
  -0.2357020E+01   0.2946280E+01  -0.5000000E+01   0.0000000E+00   0.0000000E+00   0.0000000E+00   0.0000000E+00
  -0.2946280E+01   0.2946280E+01  -0.5000000E+01   0.0000000E+00   0.0000000E+00   0.0000000E+00   0.0000000E+00
  -0.2651650E+01   0.2651650E+01  -0.5000000E+01   0.0000000E+00   0.0000000E+00   0.0000000E+00   0.0000000E+00
  -0.2357020E+01   0.3535530E+01  -0.5000000E+01   0.0000000E+00   0.0000000E+00   0.0000000E+00   0.0000000E+00
  -0.2062390E+01   0.3240910E+01  -0.5000000E+01   0.0000000E+00   0.0000000E+00   0.0000000E+00   0.0000000E+00
  -0.2651650E+01   0.3240910E+01  -0.5000000E+01   0.0000000E+00   0.0000000E+00   0.0000000E+00   0.0000000E+00
  -0.2357020E+01   0.2946280E+01  -0.5000000E+01   0.0000000E+00   0.0000000E+00   0.0000000E+00   0.0000000E+00
  -0.2062390E+01   0.3830160E+01  -0.5000000E+01   0.0000000E+00   0.0000000E+00   0.0000000E+00   0.0000000E+00
  -0.1767770E+01   0.3535530E+01  -0.5000000E+01   0.0000000E+00   0.0000000E+00   0.0000000E+00   0.0000000E+00
  -0.2357020E+01   0.3535530E+01  -0.5000000E+01   0.0000000E+00   0.0000000E+00   0.0000000E+00   0.0000000E+00
  -0.2062390E+01   0.3240910E+01  -0.5000000E+01   0.0000000E+00   0.0000000E+00   0.0000000E+00   0.0000000E+00
  -0.1767770E+01   0.4124790E+01  -0.5000000E+01   0.0000000E+00   0.0000000E+00   0.0000000E+00   0.0000000E+00
  -0.1473140E+01   0.3830160E+01  -0.5000000E+01   0.0000000E+00   0.0000000E+00   0.0000000E+00   0.0000000E+00
  -0.2062390E+01   0.3830160E+01  -0.5000000E+01   0.0000000E+00   0.0000000E+00   0.0000000E+00   0.0000000E+00
  -0.1767770E+01   0.3535530E+01  -0.5000000E+01   0.0000000E+00   0.0000000E+00   0.0000000E+00   0.0000000E+00
  -0.1473140E+01   0.4419420E+01  -0.5000000E+01   0.0000000E+00   0.0000000E+00   0.0000000E+00   0.0000000E+00
  -0.1178510E+01   0.4124790E+01  -0.5000000E+01   0.0000000E+00   0.0000000E+00   0.0000000E+00   0.0000000E+00
  -0.1767770E+01   0.4124790E+01  -0.5000000E+01   0.0000000E+00   0.0000000E+00   0.0000000E+00   0.0000000E+00
  -0.1473140E+01   0.3830160E+01  -0.5000000E+01   0.0000000E+00   0.0000000E+00   0.0000000E+00   0.0000000E+00
  -0.1178510E+01   0.4714050E+01  -0.5000000E+01   0.0000000E+00   0.0000000E+00   0.0000000E+00   0.0000000E+00
  -0.8838800E+00   0.4419420E+01  -0.5000000E+01   0.0000000E+00   0.0000000E+00   0.0000000E+00   0.0000000E+00
  -0.1473140E+01   0.4419420E+01  -0.5000000E+01   0.0000000E+00   0.0000000E+00   0.0000000E+00   0.0000000E+00
  -0.1178510E+01   0.4124790E+01  -0.5000000E+01   0.0000000E+00   0.0000000E+00   0.0000000E+00   0.0000000E+00