VARIABLES="w (rad/s)"
"abs(F   1   1)" "angle(F   1   1)"
"abs(F   1   2)" "angle(F   1   2)"
"abs(F   1   3)" "angle(F   1   3)"
"abs(F   1   4)" "angle(F   1   4)"
"abs(F   1   5)" "angle(F   1   5)"
"abs(F   1   6)" "angle(F   1   6)"
Zone t="Diffraction force - beta =   0.000 deg",I=   800,F=POINT
  0.1000000E+00  0.6968428E+01 -0.1570857E+01  0.1651077E-03  0.3140609E+01  0.3292004E+03 -0.4110111E-05  0.1321719E-04  0.8079781E-03  0.5535288E+00 -0.1570838E+01  0.1029560E-04 -0.3130460E+01
  0.2000000E+00  0.1400793E+02 -0.1570794E+01  0.3342856E-03 -0.3140207E+01  0.3279746E+03 -0.1648394E-04  0.3361762E-04 -0.3141390E+01  0.1109431E+01 -0.1570806E+01  0.2777183E-05 -0.2115573E+00
  0.3000000E+00  0.2112644E+02 -0.1570790E+01  0.9567072E-03 -0.4923688E-03  0.3259221E+03 -0.3717880E-04  0.5405280E-04 -0.3141243E+01  0.1671780E+01 -0.1570791E+01  0.1108411E-04 -0.3024249E+01
  0.4000000E+00  0.2823314E+02 -0.1570785E+01  0.3008569E-03  0.3140446E+01  0.3230552E+03 -0.6626778E-04  0.7222905E-05  0.3128167E+01  0.2226649E+01 -0.1570785E+01  0.8427075E-05 -0.2927356E+01
  0.5000000E+00  0.3536621E+02 -0.1570771E+01  0.4940017E-03 -0.1022578E-02  0.3193745E+03 -0.1039027E-03  0.3382818E-04  0.3140561E+01  0.2777573E+01 -0.1570770E+01  0.9080489E-05  0.2483517E+01
  0.6000000E+00  0.4255100E+02 -0.1570756E+01  0.8981083E-03 -0.3216428E-03  0.3148750E+03 -0.1504622E-03  0.1558857E-04  0.3141098E+01  0.3323545E+01 -0.1570753E+01  0.9076271E-05 -0.3025141E+00
  0.7000000E+00  0.4978337E+02 -0.1570744E+01  0.1065150E-02  0.6728183E-03  0.3095846E+03 -0.2052937E-03  0.8248630E-05 -0.1439710E-03  0.3865583E+01 -0.1570754E+01  0.1180719E-04 -0.1245430E+01
  0.8000000E+00  0.5709191E+02 -0.1570734E+01  0.1795160E-03  0.3106116E+01  0.3034749E+03 -0.2701525E-03  0.6964363E-04 -0.9277112E-04  0.4398865E+01 -0.1570728E+01  0.1376806E-04 -0.2688263E+01
  0.9000000E+00  0.6447985E+02 -0.1570712E+01  0.1703326E-03 -0.3837631E-02  0.2965850E+03 -0.3428730E-03  0.3271533E-04  0.1161355E-02  0.4925094E+01 -0.1570703E+01  0.5056680E-05  0.8855109E+00
  0.1000000E+01  0.7195257E+02 -0.1570685E+01  0.1108853E-02  0.1731292E-02  0.2888756E+03 -0.4298413E-03  0.5768447E-04 -0.2320781E-03  0.5444366E+01 -0.1570681E+01  0.1470814E-04 -0.1161314E-02
  0.1100000E+01  0.7951639E+02 -0.1570658E+01  0.1517984E-02  0.1238978E-02  0.2804169E+03 -0.5192487E-03  0.3702403E-04 -0.3145621E-02  0.5951688E+01 -0.1570654E+01  0.3301729E-04 -0.1416089E+01
  0.1200000E+01  0.8721242E+02 -0.1570633E+01  0.8714107E-03  0.3136548E+01  0.2711695E+03 -0.6187322E-03  0.3571754E-04  0.3141422E+01  0.6447760E+01 -0.1570626E+01  0.1853891E-04  0.6770229E+00
  0.1300000E+01  0.9505286E+02 -0.1570592E+01  0.6126696E-04 -0.3139476E+01  0.2611168E+03 -0.7498254E-03  0.7283859E-04  0.4074606E-02  0.6933343E+01 -0.1570588E+01  0.2287969E-04  0.2802662E+01
  0.1400000E+01  0.1030139E+03 -0.1570539E+01  0.3493590E-03  0.3379316E-01  0.2503673E+03 -0.8576383E-03  0.2582005E-04  0.3139243E+01  0.7403306E+01 -0.1570538E+01  0.2829668E-04 -0.1951957E+01
  0.1500000E+01  0.1111560E+03 -0.1570487E+01  0.7898045E-04  0.3085965E-01  0.2388605E+03 -0.9807756E-03  0.1473735E-04 -0.3131847E+01  0.7863870E+01 -0.1570488E+01  0.1223608E-04 -0.5855111E+00
  0.1600000E+01  0.1194472E+03 -0.1570418E+01  0.1894498E-04  0.2910016E+01  0.2266115E+03 -0.1103706E-02  0.1426692E-04 -0.3134163E+01  0.8303083E+01 -0.1570420E+01  0.1377883E-04 -0.7006908E+00
  0.1700000E+01  0.1279508E+03 -0.1570342E+01  0.8565483E-03  0.3133222E+01  0.2135717E+03 -0.1363754E-02  0.8654314E-04  0.3139064E+01  0.8723392E+01 -0.1570342E+01  0.8559128E-05 -0.7410334E+00
  0.1800000E+01  0.1366984E+03 -0.1570251E+01  0.4558844E-03 -0.7460201E-02  0.1999945E+03 -0.1430547E-02  0.1124779E-03  0.3140816E+01  0.9127909E+01 -0.1570254E+01  0.7072741E-05 -0.2513729E+01
  0.1900000E+01  0.1456908E+03 -0.1570141E+01  0.9523378E-03 -0.3136026E+01  0.1856793E+03 -0.1559926E-02  0.4681524E-04 -0.3138739E+01  0.9511534E+01 -0.1570142E+01  0.1778135E-04 -0.2543679E+01
  0.2000000E+01  0.1549075E+03 -0.1570009E+01  0.1964738E-02 -0.3709220E-04  0.1707000E+03 -0.1636040E-02  0.1009126E-03  0.3137764E+01  0.9868018E+01 -0.1570009E+01  0.3297429E-04 -0.1454629E+01
  0.2100000E+01  0.1644111E+03 -0.1569851E+01  0.1484506E-02  0.3140886E+01  0.1549380E+03 -0.2384081E-02  0.6206047E-04 -0.5925423E-02  0.1020254E+02 -0.1569856E+01  0.1471561E-04  0.1633005E+01
  0.2200000E+01  0.1741940E+03 -0.1569664E+01  0.1027234E-04 -0.2448079E+01  0.1388871E+03 -0.2064329E-02  0.1075731E-03 -0.1518150E-02  0.1051034E+02 -0.1569669E+01  0.8813115E-05  0.3102934E+01
  0.2300000E+01  0.1842867E+03 -0.1569443E+01  0.5022942E-03  0.3136047E+01  0.1221778E+03 -0.2097309E-02  0.6716959E-04  0.3613122E-02  0.1078311E+02 -0.1569445E+01  0.2205939E-04  0.1531186E+01
  0.2400000E+01  0.1947164E+03 -0.1569175E+01  0.1617922E-02 -0.3136023E+01  0.1049122E+03 -0.2050492E-02  0.3921954E-04 -0.1662613E-01  0.1101869E+02 -0.1569175E+01  0.2737670E-04  0.2117164E+01
  0.2500000E+01  0.2055444E+03 -0.1568849E+01  0.2282104E-02 -0.9262803E-03  0.8711736E+02 -0.2542506E-02  0.2999542E-04  0.3130151E+01  0.1122362E+02 -0.1568854E+01  0.6178156E-04 -0.1846894E+01
  0.2600000E+01  0.2167179E+03 -0.1568470E+01  0.2526648E-03 -0.3135643E+01  0.6890766E+02 -0.2804308E-02  0.1579648E-04  0.3121345E+01  0.1138622E+02 -0.1568476E+01  0.1547531E-04 -0.2625148E+01
  0.2700000E+01  0.2282103E+03 -0.1568023E+01  0.2754646E-03  0.2918229E-01  0.5044784E+02 -0.1948467E-02  0.1050301E-04  0.3115720E+01  0.1150200E+02 -0.1568035E+01  0.3711352E-05 -0.6870215E+00
  0.2800000E+01  0.2400282E+03 -0.1567492E+01  0.1233495E-04 -0.2400173E+01  0.3155401E+02 -0.6328429E-03  0.5014709E-04 -0.1210579E-02  0.1156815E+02 -0.1567513E+01  0.8617556E-05 -0.9723582E+00
  0.2900000E+01  0.2522012E+03 -0.1566861E+01  0.1112552E-02  0.3124817E+01  0.1232897E+02  0.6305896E-02  0.3318319E-04 -0.3116902E+01  0.1159013E+02 -0.1566876E+01  0.2313807E-04  0.1206413E+01
  0.3000000E+01  0.2646066E+03 -0.1566118E+01  0.1815288E-02  0.3141256E+01  0.7213878E+01 -0.3117455E+01  0.6752730E-05 -0.3113082E+01  0.1153846E+02 -0.1566161E+01  0.9204989E-04 -0.1517107E+01
  0.3100000E+01  0.2772976E+03 -0.1565274E+01  0.3228023E-03  0.3130249E+01  0.2671461E+02  0.3138368E+01  0.7591919E-04  0.6131643E-02  0.1142089E+02 -0.1565291E+01  0.5047171E-04 -0.1555375E+01
  0.3200000E+01  0.2902504E+03 -0.1564314E+01  0.7096378E-04  0.3049232E+01  0.4631055E+02  0.3138748E+01  0.8957448E-04  0.1318833E-02  0.1123459E+02 -0.1564336E+01  0.3629086E-04  0.1386449E+01
  0.3300000E+01  0.3034393E+03 -0.1563212E+01  0.4069133E-03 -0.1350202E-01  0.6611048E+02  0.3139405E+01  0.3120472E-04  0.9629153E-04  0.1097962E+02 -0.1563253E+01  0.2725366E-04  0.2046759E+01
  0.3400000E+01  0.3167046E+03 -0.1561942E+01  0.1473316E-02 -0.3127700E+01  0.8599085E+02  0.3140302E+01  0.1051333E-04  0.4872742E-01  0.1063797E+02 -0.1561989E+01  0.2040406E-03 -0.1596407E+01
  0.3500000E+01  0.3299820E+03 -0.1560486E+01  0.3440273E-03 -0.7434639E-01  0.1057990E+03 -0.3138317E+01  0.1147110E-04 -0.3074116E+01  0.1020767E+02 -0.1560626E+01  0.8198152E-04 -0.1572080E+01
  0.3600000E+01  0.3431933E+03 -0.1558873E+01  0.1790970E-03 -0.3118346E+01  0.1255518E+03 -0.3139076E+01  0.6262710E-05  0.3030993E+01  0.9692958E+01 -0.1558982E+01  0.1524642E-03  0.1551217E+01
  0.3700000E+01  0.3563843E+03 -0.1557111E+01  0.1655674E-02 -0.9627400E-02  0.1450023E+03 -0.3137792E+01  0.3871031E-05 -0.3084515E+01  0.9111165E+01 -0.1557260E+01  0.2224256E-04  0.1357544E+01
  0.3800000E+01  0.3692142E+03 -0.1555167E+01  0.7072124E-03  0.6011151E-01  0.1644253E+03 -0.3135972E+01  0.1017610E-03 -0.3134764E+01  0.8405437E+01 -0.1555329E+01  0.9058305E-04  0.1485718E+01
  0.3900000E+01  0.3817927E+03 -0.1553041E+01  0.4193883E-04 -0.3073788E+01  0.1837001E+03 -0.3133710E+01  0.4968736E-04  0.3122276E+01  0.7596971E+01 -0.1553172E+01  0.5993845E-04 -0.1598565E+01
  0.4000000E+01  0.3940518E+03 -0.1550705E+01  0.6151168E-03 -0.3087090E+01  0.2027143E+03 -0.3130933E+01  0.3937682E-04 -0.3119983E+01  0.6686869E+01 -0.1550729E+01  0.3623885E-04 -0.1570846E+01
  0.4100000E+01  0.4059714E+03 -0.1548169E+01  0.7487017E-03  0.4506745E-01  0.2212175E+03 -0.3125893E+01  0.5119174E-04  0.2141690E-01  0.5685047E+01 -0.1548552E+01  0.2644759E-04 -0.1410473E+01
  0.4200000E+01  0.4174224E+03 -0.1545482E+01  0.2449882E-03  0.2923521E+01  0.2397497E+03 -0.3124247E+01  0.1514561E-04  0.7653142E-01  0.4594953E+01 -0.1545437E+01  0.1083662E-04  0.2240920E+01
  0.4300000E+01  0.4282862E+03 -0.1542611E+01  0.1576517E-02 -0.3119313E+01  0.2576073E+03 -0.3120541E+01  0.3195279E-04 -0.1108115E-01  0.3404171E+01 -0.1542475E+01  0.4737340E-04 -0.1534287E+01
  0.4400000E+01  0.4384638E+03 -0.1539555E+01  0.1166372E-03  0.2780639E+01  0.2751355E+03 -0.3116260E+01  0.4460722E-04  0.2104568E-01  0.2107030E+01 -0.1538895E+01  0.7551873E-04  0.1674725E+01
  0.4500000E+01  0.4478903E+03 -0.1536330E+01  0.5508591E-03 -0.1207178E+00  0.2922833E+03 -0.3111417E+01  0.1566444E-04 -0.1108093E+00  0.7118263E+00 -0.1532300E+01  0.6183033E-04 -0.1528774E+01
  0.4600000E+01  0.4566326E+03 -0.1532933E+01  0.2418804E-03 -0.3064417E+01  0.3088653E+03 -0.3105940E+01  0.2612152E-04 -0.1060590E+00  0.7536561E+00  0.1602324E+01  0.6226179E-04  0.1674227E+01
  0.4700000E+01  0.4644984E+03 -0.1529377E+01  0.4804086E-04 -0.2234662E+01  0.3246394E+03 -0.3099246E+01  0.1193790E-04 -0.3071348E+01  0.2303801E+01  0.1610139E+01  0.4131126E-04 -0.2089775E+01
  0.4800000E+01  0.4713350E+03 -0.1525702E+01  0.7451813E-04 -0.9503432E+00  0.3401416E+03 -0.3092949E+01  0.1473869E-04 -0.1569985E+00  0.3944030E+01  0.1613561E+01  0.4508143E-04  0.1203942E+01
  0.4900000E+01  0.4772148E+03 -0.1521947E+01  0.1765885E-03  0.3127627E+01  0.3546182E+03 -0.3085866E+01  0.4131600E-04 -0.3123804E+01  0.5645775E+01  0.1617230E+01  0.1638271E-04 -0.1490501E+01
  0.5000000E+01  0.4820656E+03 -0.1518113E+01  0.1677846E-03  0.2850147E+01  0.3684027E+03 -0.3077942E+01  0.2973022E-05  0.2210783E+01  0.7412159E+01  0.1620889E+01  0.5089955E-04 -0.1461093E+01
  0.5100000E+01  0.4858150E+03 -0.1514218E+01  0.1526631E-03 -0.2629121E+00  0.3816074E+03 -0.3069096E+01  0.1064875E-04  0.2692045E+01  0.9235232E+01  0.1624471E+01  0.8476266E-04  0.1618293E+01
  0.5200000E+01  0.4884368E+03 -0.1510288E+01  0.4855576E-03  0.2780774E+01  0.3940260E+03 -0.3059338E+01  0.2163911E-04 -0.2978059E+01  0.1109644E+02  0.1627982E+01  0.1574358E-03  0.1581968E+01
  0.5300000E+01  0.4898745E+03 -0.1506410E+01  0.2007504E-03 -0.3183969E+00  0.4054721E+03 -0.3048626E+01  0.6435690E-05  0.3217357E+00  0.1298699E+02  0.1631684E+01  0.7358210E-04 -0.1451886E+01
  0.5400000E+01  0.4900687E+03 -0.1502610E+01  0.2995956E-03  0.6349539E-01  0.4158615E+03 -0.3036728E+01  0.5734399E-05 -0.3061132E+01  0.1490064E+02  0.1635397E+01  0.9834820E-04  0.1680721E+01
  0.5500000E+01  0.4888783E+03 -0.1498892E+01  0.1884142E-03  0.2346638E+01  0.4252413E+03 -0.3023860E+01  0.7236657E-05 -0.8004844E+00  0.1684248E+02  0.1638658E+01  0.1644273E-04  0.2711038E+01
  0.5600000E+01  0.4863981E+03 -0.1495319E+01  0.1281780E-03  0.2947882E+01  0.4336000E+03 -0.3010220E+01  0.6300355E-05 -0.3084965E+01  0.1877967E+02  0.1641487E+01  0.1890553E-04  0.2205656E+01
  0.5700000E+01  0.4826030E+03 -0.1491934E+01  0.1092843E-02  0.5336976E-01  0.4405797E+03 -0.2995456E+01  0.2764639E-05 -0.9934323E+00  0.2070728E+02  0.1644036E+01  0.5013635E-04  0.1652099E+01
  0.5800000E+01  0.4775941E+03 -0.1488857E+01  0.1059395E-02  0.2936443E+01  0.4466447E+03 -0.2979158E+01  0.6094048E-05  0.1679720E+00  0.2261196E+02  0.1646497E+01  0.9833395E-04 -0.1586701E+01
  0.5900000E+01  0.4712958E+03 -0.1486122E+01  0.1474324E-03 -0.1572817E+01  0.4514004E+03 -0.2961212E+01  0.1405681E-04  0.2721037E+01  0.2448886E+02  0.1648637E+01  0.8481451E-04  0.1636903E+01
  0.6000000E+01  0.4637038E+03 -0.1483786E+01  0.1509715E-03 -0.3131402E+01  0.4556299E+03 -0.2941674E+01  0.5316108E-05 -0.2599651E+01  0.2632882E+02  0.1650361E+01  0.1890623E-03  0.1588636E+01
  0.6100000E+01  0.4548310E+03 -0.1481800E+01  0.5370783E-03 -0.2121044E+00  0.4576204E+03 -0.2920665E+01  0.2372878E-04 -0.1292932E+00  0.2811437E+02  0.1651361E+01  0.7600466E-04  0.1724419E+01
  0.6200000E+01  0.4447441E+03 -0.1480293E+01  0.3069863E-03 -0.3484674E-01  0.4583362E+03 -0.2897866E+01  0.1977378E-04 -0.2928458E+01  0.2984178E+02  0.1651831E+01  0.1814858E-03  0.1597923E+01
  0.6300000E+01  0.4334554E+03 -0.1479364E+01  0.6953592E-03  0.3081310E+01  0.4575970E+03 -0.2873275E+01  0.6614335E-05  0.1866560E+01  0.3150269E+02  0.1651855E+01  0.1369221E-03 -0.1544316E+01
  0.6400000E+01  0.4210399E+03 -0.1479060E+01  0.1933107E-03 -0.1138167E+01  0.4552331E+03 -0.2847069E+01  0.2130317E-04 -0.5642578E+00  0.3307594E+02  0.1651142E+01  0.1139910E-03 -0.1552705E+01
  0.6500000E+01  0.4075791E+03 -0.1479434E+01  0.3110373E-03  0.2965619E+01  0.4512702E+03 -0.2819058E+01  0.1442580E-04  0.1512739E+01  0.3455923E+02  0.1649714E+01  0.4168515E-04 -0.1541647E+01
  0.6600000E+01  0.3931074E+03 -0.1480527E+01  0.2202850E-03  0.3108534E+01  0.4457415E+03 -0.2789064E+01  0.1948130E-04 -0.2477928E+01  0.3596198E+02  0.1647622E+01  0.6241906E-04 -0.1680278E+01
  0.6700000E+01  0.3776503E+03 -0.1482338E+01  0.1103691E-03  0.3277383E+00  0.4388276E+03 -0.2756633E+01  0.1176406E-04 -0.3130217E+01  0.3729228E+02  0.1644802E+01  0.1141013E-03 -0.1536319E+01
  0.6800000E+01  0.3612697E+03 -0.1484979E+01  0.1857619E-03 -0.5167570E+00  0.4303924E+03 -0.2721885E+01  0.5299516E-05  0.1601852E+01  0.3854145E+02  0.1641232E+01  0.1979088E-04 -0.1687534E+01
  0.6900000E+01  0.3440161E+03 -0.1488541E+01  0.1440265E-03 -0.2518667E+00  0.4203439E+03 -0.2684954E+01  0.6171920E-05 -0.2156156E+01  0.3970715E+02  0.1636868E+01  0.3266474E-04 -0.1912649E+01
  0.7000000E+01  0.3259825E+03 -0.1493095E+01  0.2664632E-03 -0.2170257E+01  0.4086749E+03 -0.2645978E+01  0.8076452E-05  0.2603054E+01  0.4078266E+02  0.1631733E+01  0.6194414E-04 -0.1696659E+01
  0.7100000E+01  0.3072340E+03 -0.1498734E+01  0.5002246E-04 -0.3677491E+00  0.3954413E+03 -0.2604977E+01  0.1083249E-04 -0.1134779E+01  0.4176765E+02  0.1625899E+01  0.2703272E-04 -0.7618386E+00
  0.7200000E+01  0.2877859E+03 -0.1505480E+01  0.1368903E-03  0.2494339E+00  0.3808554E+03 -0.2562058E+01  0.3614321E-05  0.1648946E+01  0.4267209E+02  0.1619209E+01  0.2656185E-04  0.1566710E+01
  0.7300000E+01  0.2676926E+03 -0.1513572E+01  0.1405850E-03  0.1526806E+00  0.3650496E+03 -0.2517376E+01  0.3273232E-05  0.8798439E-01  0.4349736E+02  0.1611708E+01  0.1009673E-03  0.1431108E+01
  0.7400000E+01  0.2470449E+03 -0.1523265E+01  0.5269654E-03 -0.2625058E+01  0.3482428E+03 -0.2471039E+01  0.8992730E-05  0.8625219E+00  0.4423762E+02  0.1603426E+01  0.9484292E-04 -0.1554066E+01
  0.7500000E+01  0.2258840E+03 -0.1534879E+01  0.1006879E-03 -0.6579203E+00  0.3306590E+03 -0.2422877E+01  0.6977182E-05 -0.1420274E+01  0.4490801E+02  0.1594567E+01  0.2656029E-05 -0.1197488E+01
  0.7600000E+01  0.2042538E+03 -0.1548810E+01  0.3475018E-04  0.6217780E-02  0.3125479E+03 -0.2372915E+01  0.1827707E-04  0.2767824E+01  0.4552051E+02  0.1585289E+01  0.4007732E-04 -0.1702556E+01
  0.7700000E+01  0.1821641E+03 -0.1565714E+01  0.6615410E-04 -0.2117039E+01  0.2942535E+03 -0.2321015E+01  0.7780783E-05 -0.2787374E+01  0.4608983E+02  0.1575610E+01  0.4979670E-04  0.1742775E+01
  0.7800000E+01  0.1596617E+03 -0.1586802E+01  0.4571617E-03 -0.1532430E-01  0.2759855E+03 -0.2267138E+01  0.1135835E-04  0.2318891E+00  0.4662096E+02  0.1565695E+01  0.2405874E-05 -0.2926369E+01
  0.7900000E+01  0.1367970E+03 -0.1614119E+01  0.2228363E-03  0.2463025E+01  0.2579145E+03 -0.2211480E+01  0.5610000E-05 -0.1785625E+01  0.4711466E+02  0.1555579E+01  0.7437781E-04 -0.1528071E+01
  0.8000000E+01  0.1136443E+03 -0.1651399E+01  0.1132748E-03 -0.2864608E+01  0.2402423E+03 -0.2154022E+01  0.2452749E-05  0.1273945E+01  0.4757199E+02  0.1545326E+01  0.8769190E-05  0.7559264E+00
  0.8100000E+01  0.9030715E+02 -0.1706478E+01  0.2127792E-03 -0.1618673E-01  0.2231498E+03 -0.2094880E+01  0.3719072E-05  0.4256508E-01  0.4800081E+02  0.1535136E+01  0.1151770E-03  0.1450947E+01
  0.8200000E+01  0.6696993E+02 -0.1799242E+01  0.9346482E-04 -0.1217190E+01  0.2068906E+03 -0.2033731E+01  0.5300989E-05 -0.5514345E-01  0.4842244E+02  0.1525344E+01  0.6900413E-04 -0.1288451E+01
  0.8300001E+01  0.4436624E+02 -0.1987480E+01  0.2184934E-03  0.5458679E-01  0.1916399E+03 -0.1970656E+01  0.2931130E-05  0.8139533E+00  0.4883278E+02  0.1515939E+01  0.1124592E-03 -0.1443350E+01
  0.8400001E+01  0.2577469E+02 -0.2495394E+01  0.7098531E-04  0.6462931E+00  0.1775047E+03 -0.1905763E+01  0.2380101E-05  0.1704234E+00  0.4923601E+02  0.1507017E+01  0.7394467E-04 -0.8283108E+00
  0.8500001E+01  0.2516331E+02  0.2735190E+01  0.1238239E-03  0.2540987E-01  0.1645924E+03 -0.1839177E+01  0.1018371E-04 -0.1676177E+00  0.4964691E+02  0.1498911E+01  0.2712024E-04  0.2062580E+01
  0.8600000E+01  0.4402680E+02  0.2191806E+01  0.7503905E-04  0.3046429E+01  0.1529560E+03 -0.1771455E+01  0.9518317E-06 -0.1966590E+01  0.5007009E+02  0.1491980E+01  0.5339507E-04 -0.1329440E+01
  0.8700000E+01  0.6811959E+02  0.1996067E+01  0.4006160E-04  0.2882856E+01  0.1426139E+03 -0.1703174E+01  0.1962059E-05 -0.4795903E+00  0.5050903E+02  0.1486367E+01  0.3544207E-04 -0.6150436E+00
  0.8800001E+01  0.9386895E+02  0.1904340E+01  0.3924161E-04  0.2569522E+00  0.1335374E+03 -0.1634400E+01  0.1942891E-05  0.1708826E+01  0.5098004E+02  0.1482774E+01  0.7798809E-04  0.1902058E+01
  0.8900001E+01  0.1204866E+03  0.1852922E+01  0.3780470E-04 -0.2268531E+01  0.1256946E+03 -0.1566065E+01  0.7325765E-05 -0.2403530E+01  0.5148665E+02  0.1481274E+01  0.2343091E-04 -0.1640994E+01
  0.9000001E+01  0.1476541E+03  0.1821980E+01  0.4963176E-04 -0.2639097E+01  0.1189799E+03 -0.1499690E+01  0.1064579E-04  0.3029632E+01  0.5201614E+02  0.1482099E+01  0.1096071E-03  0.1698389E+01
  0.9100000E+01  0.1752488E+03  0.1803350E+01  0.2205080E-03 -0.1660773E-01  0.1132476E+03 -0.1436647E+01  0.6604130E-05 -0.3719582E+00  0.5257265E+02  0.1485729E+01  0.3597625E-04  0.2113566E+01
  0.9200000E+01  0.2031754E+03  0.1792721E+01  0.6939377E-04 -0.2005193E-01  0.1083739E+03 -0.1377640E+01  0.1677597E-04 -0.1220254E+00  0.5315880E+02  0.1492205E+01  0.1600258E-04  0.2307547E+01
  0.9300001E+01  0.2313722E+03  0.1787912E+01  0.1212268E-03  0.3435490E+00  0.1042070E+03 -0.1324128E+01  0.2544277E-05  0.1531626E+01  0.5378016E+02  0.1501615E+01  0.5964316E-04 -0.1902267E+01
  0.9400001E+01  0.2595550E+03  0.1788554E+01  0.4970449E-04  0.2608641E+01  0.1006230E+03 -0.1276248E+01  0.2031283E-04  0.2658376E+01  0.5439815E+02  0.1514663E+01  0.1300368E-04 -0.2336313E+01
  0.9500001E+01  0.2875557E+03  0.1793646E+01  0.4875105E-04 -0.3121990E+01  0.9753574E+02 -0.1235230E+01  0.1357015E-04  0.2932287E+01  0.5500982E+02  0.1531407E+01  0.4402693E-05  0.2668442E+01
  0.9600000E+01  0.3153546E+03  0.1802494E+01  0.4064659E-04 -0.1313925E+01  0.9489723E+02 -0.1201272E+01  0.9983130E-05  0.4605784E+00  0.5564792E+02  0.1551779E+01  0.4754179E-04 -0.1568417E+01
  0.9700001E+01  0.3424380E+03  0.1815172E+01  0.1631783E-03  0.3229803E-01  0.9257929E+02 -0.1174642E+01  0.1204058E-04  0.4722605E+00  0.5624796E+02  0.1576250E+01  0.2262144E-04 -0.1678059E+01
  0.9800001E+01  0.3683568E+03  0.1831378E+01  0.1115663E-03  0.2993380E+01  0.9052697E+02 -0.1155879E+01  0.1531232E-04  0.8075060E-01  0.5677644E+02  0.1604503E+01  0.1818316E-04 -0.1453702E+01
  0.9900001E+01  0.3929973E+03  0.1850771E+01  0.5867883E-04  0.2422166E+01  0.8867574E+02 -0.1144600E+01  0.5171625E-05  0.2047591E+01  0.5725721E+02  0.1636587E+01  0.6334946E-05  0.2686156E+01
  0.1000000E+02  0.4157715E+03  0.1873039E+01  0.8173796E-04 -0.3262469E+00  0.8697810E+02 -0.1140143E+01  0.3601994E-05 -0.1447443E+01  0.5763448E+02  0.1672593E+01  0.4402481E-04 -0.1453588E+01
  0.1010000E+02  0.4363056E+03  0.1897786E+01  0.1795663E-03 -0.3084707E+01  0.8540879E+02 -0.1142648E+01  0.2714901E-04  0.2813432E-01  0.5790388E+02  0.1711941E+01  0.4001092E-04  0.1762340E+01
  0.1020000E+02  0.4539783E+03  0.1924411E+01  0.5253710E-04  0.2591457E+01  0.8394128E+02 -0.1152120E+01  0.1563672E-04  0.2407206E+00  0.5801140E+02  0.1753839E+01  0.3485684E-04 -0.1604850E+01
  0.1030000E+02  0.4685262E+03  0.1952531E+01  0.1746749E-03  0.3018819E+01  0.8257016E+02 -0.1168034E+01  0.4499427E-05 -0.2686373E+01  0.5794915E+02  0.1798271E+01  0.2596702E-04 -0.1591548E+01
  0.1040000E+02  0.4798072E+03  0.1981749E+01  0.1897220E-03  0.2181188E-01  0.8126301E+02 -0.1189818E+01  0.1427755E-04 -0.3140734E+01  0.5774572E+02  0.1844753E+01  0.2736731E-04  0.1491969E+01
  0.1050000E+02  0.4873449E+03  0.2010589E+01  0.8267864E-04 -0.1303869E-01  0.8002492E+02 -0.1217031E+01  0.2143704E-04 -0.3106895E+01  0.5734480E+02  0.1891353E+01  0.3967124E-05  0.2260112E+01
  0.1060000E+02  0.4912017E+03  0.2038858E+01  0.3041801E-03 -0.3525146E-01  0.7886327E+02 -0.1249300E+01  0.1316031E-04 -0.3140733E+01  0.5677031E+02  0.1937875E+01  0.3211453E-04 -0.1705335E+01
  0.1070000E+02  0.4915434E+03  0.2066300E+01  0.2610745E-03  0.1018294E-01  0.7779774E+02 -0.1286254E+01  0.2006211E-04  0.3094603E+01  0.5605254E+02  0.1984216E+01  0.1331176E-04 -0.1426139E+01
  0.1080000E+02  0.4885131E+03  0.2091777E+01  0.2616949E-03 -0.3297461E-01  0.7683870E+02 -0.1327328E+01  0.5118254E-06  0.2796487E+01  0.5518200E+02  0.2028752E+01  0.1342386E-04 -0.2581339E+01
  0.1090000E+02  0.4823532E+03  0.2114908E+01  0.1807491E-03 -0.8886997E-01  0.7601984E+02 -0.1372045E+01  0.3085894E-05  0.1916998E+01  0.5419292E+02  0.2070985E+01  0.8802421E-05 -0.2996777E+01
  0.1100000E+02  0.4736287E+03  0.2135696E+01  0.1864525E-03  0.4245731E-02  0.7533821E+02 -0.1419008E+01  0.8640429E-05 -0.3022626E+01  0.5313067E+02  0.2111017E+01  0.8915918E-05 -0.1481289E+01
  0.1110000E+02  0.4626267E+03  0.2153883E+01  0.1512401E-03  0.3067556E+01  0.7482217E+02 -0.1467785E+01  0.3108639E-04  0.3032162E+01  0.5200471E+02  0.2148622E+01  0.6889624E-05  0.1474371E+01
  0.1120000E+02  0.4497172E+03  0.2168889E+01  0.1519108E-03  0.2850950E+01  0.7447724E+02 -0.1517938E+01  0.8945245E-05 -0.2696400E+01  0.5084303E+02  0.2182704E+01  0.6732222E-05  0.3005483E+01
  0.1130000E+02  0.4352932E+03  0.2181319E+01  0.3061746E-03  0.2040278E-01  0.7428945E+02 -0.1568138E+01  0.1506015E-05 -0.1943076E+01  0.4965347E+02  0.2214037E+01  0.1100457E-04 -0.2538890E+01
  0.1140000E+02  0.4196524E+03  0.2191303E+01  0.2025581E-03  0.3034452E+01  0.7421365E+02 -0.1618104E+01  0.1905127E-04 -0.2898672E+01  0.4845216E+02  0.2243098E+01  0.3988144E-05 -0.2382924E+01
  0.1150000E+02  0.4033813E+03  0.2198718E+01  0.3959250E-04  0.1642438E+00  0.7418746E+02 -0.1666618E+01  0.1441051E-04 -0.2662794E+01  0.4730271E+02  0.2269054E+01  0.5877417E-05 -0.1203582E+01
  0.1160000E+02  0.3864682E+03  0.2203981E+01  0.2131214E-03  0.2770008E+01  0.7421333E+02 -0.1713396E+01  0.7645293E-05  0.1738233E+00  0.4616987E+02  0.2292657E+01  0.4646787E-05 -0.1597325E-01
  0.1170000E+02  0.3690430E+03  0.2207400E+01  0.9069053E-04  0.1996799E+01  0.7422940E+02 -0.1758239E+01  0.5462841E-05  0.8940354E+00  0.4504168E+02  0.2314425E+01  0.2146016E-04  0.1451250E+01
  0.1180000E+02  0.3512927E+03  0.2209312E+01  0.1929262E-03  0.1734118E+00  0.7418508E+02 -0.1800622E+01  0.3614508E-04  0.8507200E-01  0.4393478E+02  0.2334470E+01  0.1411282E-04  0.9813873E+00
  0.1190000E+02  0.3333023E+03  0.2210074E+01  0.2802444E-03  0.7597949E-01  0.7405888E+02 -0.1840608E+01  0.2505755E-04 -0.3957007E+00  0.4284188E+02  0.2353326E+01  0.6251929E-05 -0.2373957E+01
  0.1200000E+02  0.3152551E+03  0.2210178E+01  0.2630354E-03 -0.2947887E+01  0.7368423E+02 -0.1878600E+01  0.8591873E-05 -0.4954344E+00  0.4177134E+02  0.2371608E+01  0.1923054E-04 -0.1459738E+01
  0.1210000E+02  0.2970475E+03  0.2209854E+01  0.5023534E-04 -0.3056804E+01  0.7313542E+02 -0.1914161E+01  0.8767093E-05  0.3041589E+00  0.4069362E+02  0.2389568E+01  0.2795040E-04 -0.1541137E+01
  0.1220000E+02  0.2786122E+03  0.2209406E+01  0.4758890E-04  0.3262992E+00  0.7231442E+02 -0.1948154E+01  0.1810879E-04  0.1849250E+00  0.3958812E+02  0.2407780E+01  0.8148023E-05 -0.1320377E+01
  0.1230000E+02  0.2599929E+03  0.2209075E+01  0.2742632E-04 -0.1494011E+01  0.7120518E+02 -0.1980815E+01  0.2341800E-04  0.1184588E-01  0.3843459E+02  0.2426598E+01  0.3285531E-04 -0.1595509E+01
  0.1240000E+02  0.2412580E+03  0.2209869E+01  0.5510359E-04 -0.2687076E+01  0.6981118E+02 -0.2013016E+01  0.2326385E-04  0.5468173E-01  0.3725358E+02  0.2447153E+01  0.2368592E-04  0.1673609E+01
  0.1250000E+02  0.2223282E+03  0.2211933E+01  0.9589824E-04 -0.2666605E+01  0.6812588E+02 -0.2045145E+01  0.5404274E-05 -0.1024148E+00  0.3601877E+02  0.2469678E+01  0.2184388E-04 -0.1746337E+01
  0.1260000E+02  0.2031513E+03  0.2215033E+01  0.1940936E-04  0.2894764E+01  0.6614716E+02 -0.2077396E+01  0.3391735E-05  0.2630484E+01  0.3468377E+02  0.2494271E+01  0.1116480E-04 -0.1168702E+01
  0.1270000E+02  0.1835847E+03  0.2219334E+01  0.6923253E-04  0.9285342E+00  0.6392915E+02 -0.2110008E+01  0.3383369E-05 -0.3769067E-01  0.3322418E+02  0.2521935E+01  0.3780187E-04  0.1629771E+01
  0.1280000E+02  0.1637671E+03  0.2225390E+01  0.1182975E-03 -0.3062061E+01  0.6147879E+02 -0.2143396E+01  0.1805494E-05 -0.7893050E-02  0.3165257E+02  0.2553180E+01  0.5690752E-05 -0.2020275E+01
  0.1290000E+02  0.1437998E+03  0.2233309E+01  0.2511526E-04 -0.1727325E+00  0.5886031E+02 -0.2179037E+01  0.2491611E-04  0.2133809E-01  0.2995547E+02  0.2588558E+01  0.1517249E-04 -0.1386224E+01
  0.1300000E+02  0.1236021E+03  0.2242158E+01  0.9241920E-04  0.1125727E+00  0.5607118E+02 -0.2215899E+01  0.2470881E-05 -0.2885181E+00  0.2811880E+02  0.2628144E+01  0.7097639E-05  0.1596713E+01
  0.1310000E+02  0.1034223E+03  0.2251719E+01  0.1018864E-03 -0.3084376E+00  0.5320691E+02 -0.2255110E+01  0.9827369E-05  0.5638693E-02  0.2614762E+02  0.2672451E+01  0.3765014E-04  0.1848448E+01
  0.1320000E+02  0.8351299E+02  0.2262140E+01  0.4689606E-04 -0.1544614E+01  0.5024434E+02 -0.2296930E+01  0.6932836E-05 -0.4807539E-02  0.2408572E+02  0.2721801E+01  0.4412511E-04  0.1689411E+01
  0.1330000E+02  0.6390232E+02  0.2272999E+01  0.2119838E-04  0.1050007E+01  0.4725093E+02 -0.2341628E+01  0.1399848E-05 -0.2685802E+01  0.2192091E+02  0.2777889E+01  0.1234758E-04 -0.1593940E+01
  0.1340000E+02  0.4499242E+02  0.2286151E+01  0.7381934E-04 -0.1685424E+00  0.4423992E+02 -0.2389655E+01  0.4396186E-05 -0.2312441E+01  0.1974178E+02  0.2841694E+01  0.2606258E-04  0.1662577E+01
  0.1350000E+02  0.2692765E+02  0.2299674E+01  0.9168744E-05 -0.1880495E+01  0.4125527E+02 -0.2440733E+01  0.1279874E-04  0.1213659E+01  0.1754860E+02  0.2913808E+01  0.1711584E-04  0.1907322E+01
  0.1360000E+02  0.9830546E+01  0.2330970E+01  0.1124912E-03 -0.1702566E+00  0.3827630E+02 -0.2496116E+01  0.5762604E-05  0.5317367E+00  0.1540978E+02  0.2999040E+01  0.1223636E-04  0.3963301E+00
  0.1370000E+02  0.6076387E+01 -0.9420125E+00  0.5799659E-04 -0.6484038E-01  0.3536425E+02 -0.2555856E+01  0.1321137E-06  0.1890700E+01  0.1339849E+02  0.3101518E+01  0.1146025E-04  0.1508938E+00
  0.1380000E+02  0.2065243E+02 -0.8819013E+00  0.6120551E-05  0.5541920E+00  0.3250753E+02 -0.2621295E+01  0.2066581E-05 -0.2689670E+01  0.1156890E+02 -0.3056680E+01  0.7314279E-05  0.1659347E+01
  0.1390000E+02  0.3383515E+02 -0.8756126E+00  0.7496017E-04  0.3118283E+01  0.2972886E+02 -0.2693026E+01  0.3345237E-05  0.1230701E+00  0.9990129E+01 -0.2904474E+01  0.1976165E-04  0.1673384E+01
  0.1400000E+02  0.4562010E+02 -0.8809951E+00  0.1313391E-04  0.1326710E+00  0.2704602E+02 -0.2773021E+01  0.1715461E-05  0.3078949E+01  0.8766004E+01 -0.2719112E+01  0.8900657E-05 -0.2613505E+01
  0.1410000E+02  0.5605025E+02 -0.8910813E+00  0.5684841E-05 -0.1917909E+01  0.2447846E+02 -0.2863352E+01  0.1878276E-05 -0.2499052E-01  0.7943385E+01 -0.2505520E+01  0.2265889E-04  0.7203291E-01
  0.1420000E+02  0.6521948E+02 -0.9071360E+00  0.1033190E-04 -0.2876751E+01  0.2205871E+02 -0.2967147E+01  0.6001965E-06 -0.8441781E+00  0.7581787E+01 -0.2278382E+01  0.2095754E-04 -0.7321443E+00
  0.1430000E+02  0.7306584E+02 -0.9265195E+00  0.6508551E-05 -0.2913437E+00  0.1983010E+02 -0.3088422E+01  0.1092323E-05  0.8480049E+00  0.7614598E+01 -0.2067288E+01  0.1649236E-04 -0.1444205E+01
  0.1440000E+02  0.7980151E+02 -0.9495877E+00  0.2311799E-04 -0.2828760E+01  0.1786934E+02  0.3051145E+01  0.3236541E-05 -0.1335356E+01  0.7965182E+01 -0.1887823E+01  0.1590903E-04  0.1756230E+01
  0.1450000E+02  0.8553027E+02 -0.9780051E+00  0.7665673E-05  0.2599762E+01  0.1628274E+02  0.2881586E+01  0.3765018E-05 -0.2837780E+01  0.8528604E+01 -0.1749957E+01  0.1520986E-04  0.1659072E+01
  0.1460000E+02  0.9022342E+02 -0.1008818E+01  0.2585282E-04  0.2304341E+01  0.1520715E+02  0.2686968E+01  0.4594046E-05 -0.2329675E+01  0.9179165E+01 -0.1648875E+01  0.1090485E-04 -0.1412979E+01
  0.1470000E+02  0.9404943E+02 -0.1043923E+01  0.2155052E-04  0.3114191E+01  0.1478455E+02  0.2477068E+01  0.3777545E-05 -0.4034427E-01  0.9866543E+01 -0.1580194E+01  0.5664919E-05 -0.2476507E+01
  0.1480000E+02  0.9709928E+02 -0.1082838E+01  0.2213173E-04 -0.7703784E+00  0.1508205E+02  0.2272506E+01  0.1565503E-05 -0.2906960E+01  0.1054512E+02 -0.1536741E+01  0.8488923E-05  0.1600779E+01
  0.1490000E+02  0.9947117E+02 -0.1125236E+01  0.8524683E-05 -0.2510087E+01  0.1605625E+02  0.2096095E+01  0.9912909E-06  0.2319322E+01  0.1118744E+02 -0.1512885E+01  0.1009059E-04  0.8554830E+00
  0.1500000E+02  0.1012498E+03 -0.1171258E+01  0.2359766E-04  0.3038015E+01  0.1750478E+02  0.1965453E+01  0.9015108E-06  0.1879345E+01  0.1178466E+02 -0.1505424E+01  0.1155979E-04 -0.2498641E+01
  0.1510000E+02  0.1023878E+03 -0.1220573E+01  0.1017593E-03  0.3138016E+01  0.1915027E+02  0.1881879E+01  0.4894342E-05  0.1403972E-02  0.1231086E+02 -0.1510187E+01  0.1691778E-04  0.1608532E+01