VARIABLES="w (rad/s)"
"A   1   1" "B   1   1"
"A   1   2" "B   1   2"
"A   1   3" "B   1   3"
"A   1   4" "B   1   4"
"A   1   5" "B   1   5"
"A   1   6" "B   1   6"
Zone t="Motion of body    1 in DoF   1",I=   800,F=POINT
  0.1000000E+00  0.6175445E+01  0.2976220E-05  0.5727316E-07  0.5657835E-12 -0.3886612E-05  0.8570202E-07 -0.1215904E-08 -0.1242048E-13  0.3365437E+00  0.2383542E-06 -0.1076565E-05 -0.3418039E-12
  0.2000000E+00  0.6323925E+01  0.2392838E-04 -0.8467396E-08  0.4178352E-11 -0.3582217E-05  0.1924586E-07  0.1471832E-08  0.3789207E-13  0.3443247E+00  0.1898644E-05 -0.2459784E-06  0.1136238E-11
  0.3000000E+00  0.6471293E+01  0.8182351E-04 -0.3671327E-08 -0.6754597E-12 -0.4255476E-05  0.2077449E-06 -0.1736774E-08 -0.7312484E-13  0.3599679E+00  0.6471912E-05 -0.1993385E-06  0.1025681E-10
  0.4000000E+00  0.6500735E+01  0.1965935E-03 -0.6648406E-08 -0.5403233E-11 -0.3523199E-05  0.1324083E-06  0.1898359E-08  0.1396374E-12  0.3621818E+00  0.1550610E-04  0.7975925E-06  0.1611317E-10
  0.5000000E+00  0.6510823E+01  0.3906636E-03  0.2164415E-07 -0.1002487E-10 -0.4527499E-05  0.2589738E-06  0.2414300E-09 -0.8830962E-13  0.3632680E+00  0.3067158E-04  0.5307464E-06  0.3004236E-10
  0.6000000E+00  0.6523787E+01  0.6899204E-03  0.1834754E-07  0.3673151E-10 -0.5744042E-05  0.2820166E-06 -0.7466195E-09 -0.4613791E-12  0.3637263E+00  0.5389277E-04 -0.1232900E-06  0.1070265E-09
  0.7000000E+00  0.6529447E+01  0.1123629E-02  0.6447018E-08 -0.1130722E-09 -0.5392340E-05  0.3001541E-06 -0.6775382E-10  0.1314429E-11  0.3651521E+00  0.8722631E-04 -0.1931832E-06 -0.5305448E-09
  0.8000000E+00  0.6541224E+01  0.1727181E-02 -0.4074536E-07  0.3296918E-11 -0.5393883E-05  0.2879555E-06 -0.8341030E-09  0.2481160E-11  0.3649613E+00  0.1330848E-03  0.2951306E-06 -0.7994544E-10
  0.9000000E+00  0.6553146E+01  0.2543023E-02 -0.2592868E-07 -0.7020873E-10 -0.5550519E-05  0.3010450E-06  0.3496899E-08 -0.3619825E-11  0.3650656E+00  0.1942009E-03 -0.1292670E-07  0.8053909E-09
  0.1000000E+01  0.6562682E+01  0.3623591E-02 -0.3679816E-08 -0.6619416E-10 -0.5736719E-05  0.4459351E-06  0.2185891E-08 -0.3867059E-11  0.3659362E+00  0.2741810E-03 -0.1005178E-05 -0.1431460E-08
  0.1100000E+01  0.6568217E+01  0.5024470E-02  0.9161092E-08  0.9748646E-10 -0.4976223E-05  0.4449704E-06 -0.4968649E-09 -0.2191638E-11  0.3657233E+00  0.3760267E-03  0.4955634E-06 -0.6614009E-09
  0.1200000E+01  0.6581424E+01  0.6833843E-02 -0.1501273E-07  0.7877645E-09 -0.3895845E-05  0.4385549E-06 -0.1991487E-08 -0.1089640E-10  0.3654064E+00  0.5048532E-03  0.3555650E-06  0.3368569E-09
  0.1300000E+01  0.6599969E+01  0.9144848E-02 -0.4334792E-08 -0.6144774E-10 -0.2758220E-05  0.3187903E-06 -0.1767547E-08  0.4265308E-11  0.3656888E+00  0.6669270E-03  0.3521445E-06  0.2675397E-08
  0.1400000E+01  0.6610516E+01  0.1205426E-01  0.1327291E-06  0.6519940E-10 -0.2640026E-05  0.2229833E-06 -0.1549858E-08 -0.1348942E-10  0.3651749E+00  0.8658660E-03 -0.3282236E-06 -0.4798637E-08
  0.1500000E+01  0.6628231E+01  0.1573027E-01 -0.2895346E-07 -0.9458745E-10 -0.1736330E-05 -0.1089405E-06  0.1736326E-08  0.3576412E-11  0.3662877E+00  0.1111516E-02 -0.4458991E-06  0.4171146E-08
  0.1600000E+01  0.6638448E+01  0.2037263E-01  0.9467158E-07 -0.3637979E-09 -0.1037358E-05  0.6084086E-07 -0.1717352E-08 -0.1677996E-10  0.3658331E+00  0.1416475E-02 -0.1202095E-06  0.4431436E-08
  0.1700000E+01  0.6654593E+01  0.2616186E-01  0.5532938E-07 -0.9578116E-09  0.5939495E-07 -0.2918903E-06  0.3514966E-08 -0.3130567E-10  0.3651896E+00  0.1782233E-02 -0.3478185E-06 -0.9341279E-09
  0.1800000E+01  0.6678594E+01  0.3334962E-01  0.9647718E-07  0.8109282E-09  0.1415630E-05 -0.3000909E-06 -0.3626330E-09  0.2744733E-10  0.3653907E+00  0.2224715E-02 -0.5000451E-06 -0.1295208E-07
  0.1900000E+01  0.6704872E+01  0.4237090E-01 -0.7887521E-07 -0.1073886E-08  0.2342445E-05 -0.5735021E-06  0.1689005E-08  0.9388920E-11  0.3656265E+00  0.2760372E-02  0.1349410E-06  0.2077825E-08
  0.2000000E+01  0.6725387E+01  0.5373304E-01 -0.9596988E-08 -0.1497597E-08  0.2268235E-05 -0.7014844E-06  0.1103734E-08  0.1288604E-10  0.3649996E+00  0.3420467E-02 -0.1712579E-06  0.7768056E-08
  0.2100000E+01  0.6749978E+01  0.6785744E-01 -0.2155069E-07 -0.1578201E-08  0.3655411E-05 -0.1237782E-05 -0.8454691E-09  0.1005448E-09  0.3651751E+00  0.4199790E-02 -0.3856802E-07 -0.9332766E-08
  0.2200000E+01  0.6773317E+01  0.8517237E-01  0.1592773E-07  0.9749783E-09  0.4452792E-05 -0.1350323E-05  0.2100088E-08 -0.5681580E-11  0.3654445E+00  0.5129226E-02 -0.5868323E-06  0.3134932E-07
  0.2300000E+01  0.6798434E+01  0.1066490E+00  0.1015471E-08  0.8767529E-09  0.3141422E-05 -0.9920907E-06  0.9603204E-09  0.2166324E-10  0.3649670E+00  0.6222735E-02 -0.6942312E-06  0.4039666E-09
  0.2400000E+01  0.6826879E+01  0.1335649E+00  0.8570471E-08 -0.2088655E-08  0.2319364E-05 -0.9450456E-06 -0.2143527E-08  0.1282367E-09  0.3639901E+00  0.7534484E-02  0.4415289E-07 -0.9905516E-08
  0.2500000E+01  0.6866010E+01  0.1671145E+00 -0.5213951E-07 -0.4728918E-08 -0.6515755E-06 -0.5441561E-06 -0.1528397E-08 -0.6642147E-10  0.3640497E+00  0.9108051E-02 -0.1935703E-06  0.1774453E-07
  0.2600000E+01  0.6905882E+01  0.2081939E+00  0.1770576E-06 -0.4167305E-08 -0.8859346E-06 -0.2793532E-06  0.6468691E-09  0.2304210E-09  0.3638135E+00  0.1090358E-01 -0.2406841E-06 -0.3056009E-07
  0.2700000E+01  0.6943004E+01  0.2579623E+00 -0.1924625E-07  0.5897164E-08 -0.2811400E-05 -0.6860952E-06  0.3332339E-10  0.5972450E-10  0.3631016E+00  0.1294017E-01 -0.1748268E-06 -0.9340938E-07
  0.2800000E+01  0.6980048E+01  0.3189595E+00 -0.1048258E-06 -0.3583409E-09 -0.1396555E-05 -0.8010878E-06  0.3194466E-08 -0.3073378E-09  0.3624077E+00  0.1526811E-01 -0.1056407E-05 -0.3658025E-07
  0.2900000E+01  0.7023116E+01  0.3937394E+00  0.1869419E-07 -0.5766196E-09 -0.3118931E-05 -0.1021774E-05 -0.5805543E-09 -0.1329015E-09  0.3628714E+00  0.1799588E-01 -0.2620182E-06  0.1527530E-07
  0.3000000E+01  0.7060186E+01  0.4843573E+00  0.5078861E-07 -0.6786649E-08 -0.3206573E-05 -0.1312074E-05  0.4552715E-08  0.2761557E-09  0.3616370E+00  0.2100593E-01  0.7218146E-06 -0.3394752E-06
  0.3100000E+01  0.7101639E+01  0.5910152E+00 -0.8160808E-07 -0.1573244E-07 -0.4985435E-05 -0.1623247E-05 -0.2031902E-09  0.6521155E-09  0.3600916E+00  0.2427431E-01 -0.3486149E-06  0.1164020E-06
  0.3200000E+01  0.7148188E+01  0.7162672E+00  0.4935828E-07 -0.3295099E-07 -0.6544511E-05 -0.2809154E-05 -0.1336411E-08 -0.3710087E-09  0.3584333E+00  0.2760614E-01 -0.1354422E-05 -0.3674027E-07
  0.3300000E+01  0.7201638E+01  0.8644706E+00 -0.1395661E-07  0.1233093E-07 -0.7276587E-05 -0.4563934E-05 -0.1256495E-08  0.1248935E-08  0.3573314E+00  0.3106145E-01 -0.4013202E-06  0.1404118E-08
  0.3400000E+01  0.7251542E+01  0.1039560E+01 -0.1322940E-07 -0.5471520E-08 -0.5703162E-05 -0.3784959E-05 -0.1030606E-08  0.4856601E-09  0.3552694E+00  0.3464879E-01  0.6479949E-06  0.2694747E-06
  0.3500000E+01  0.7298656E+01  0.1245397E+01 -0.1797536E-06 -0.6891787E-07 -0.3639161E-05 -0.3590244E-05 -0.1339718E-08  0.1227023E-08  0.3527422E+00  0.3812499E-01  0.1350972E-06  0.1466580E-07
  0.3600000E+01  0.7342841E+01  0.1479654E+01 -0.6789277E-07  0.4542744E-07 -0.2388041E-05 -0.2663563E-05  0.1751491E-08  0.3331113E-11  0.3502757E+00  0.4137780E-01  0.3830303E-06 -0.2133428E-06
  0.3700000E+01  0.7393620E+01  0.1743275E+01  0.1325758E-06  0.5180482E-07 -0.7191921E-05 -0.4041000E-05 -0.3062570E-08 -0.3320997E-08  0.3494906E+00  0.4403738E-01  0.1965322E-06  0.2364533E-06
  0.3800000E+01  0.7428675E+01  0.2040285E+01  0.3457995E-07 -0.4345929E-07 -0.1405650E-04 -0.6560290E-05  0.7677261E-09  0.2312037E-08  0.3463133E+00  0.4588889E-01  0.9540556E-06 -0.2422390E-06
  0.3900000E+01  0.7463080E+01  0.2373408E+01 -0.7011411E-07  0.3694731E-07 -0.1940482E-04 -0.1090636E-04  0.2556767E-08  0.1868328E-08  0.3425977E+00  0.4673076E-01 -0.8526899E-06 -0.4952290E-07
  0.4000000E+01  0.7496249E+01  0.2747543E+01  0.1160624E-06 -0.1079025E-07 -0.1192563E-04 -0.7934448E-05 -0.1341974E-08 -0.9213119E-10  0.3384438E+00  0.4636056E-01 -0.8686678E-07 -0.1765949E-06
  0.4100000E+01  0.7531032E+01  0.3163345E+01 -0.1762556E-07  0.1316948E-08  0.3025026E-05  0.1332055E-05 -0.2488728E-08  0.6387024E-10  0.3347127E+00  0.4399650E-01  0.7066763E-06  0.4860403E-06
  0.4200000E+01  0.7562840E+01  0.3614283E+01  0.4241884E-07  0.9580981E-07  0.4208941E-05 -0.1869229E-05 -0.4668377E-08  0.7819043E-09  0.3310826E+00  0.3968945E-01 -0.8194344E-06 -0.6850235E-07
  0.4300000E+01  0.7587635E+01  0.4104460E+01 -0.8844180E-07 -0.1180742E-06  0.7651923E-06 -0.9176251E-05  0.3168044E-08 -0.2398303E-08  0.3268999E+00  0.3257657E-01 -0.9030034E-06  0.9377322E-06
  0.4400000E+01  0.7603721E+01  0.4635110E+01  0.2744690E-07  0.7126073E-07 -0.4598261E-05 -0.1838143E-04  0.1133586E-08  0.1162176E-07  0.3220896E+00  0.2249407E-01  0.1116859E-05 -0.1813959E-05
  0.4500000E+01  0.7611380E+01  0.5205017E+01 -0.8307850E-07 -0.6411574E-07 -0.7721228E-05 -0.2604579E-04 -0.2818570E-08  0.6610153E-08  0.3168939E+00  0.8874309E-02 -0.2731952E-06  0.1188577E-05
  0.4600000E+01  0.7618042E+01  0.5816293E+01 -0.1115404E-06 -0.1065200E-07 -0.7956654E-05 -0.3222971E-04  0.1824904E-08  0.9050911E-08  0.3127151E+00 -0.8485421E-02 -0.1066932E-06  0.1043922E-05
  0.4700000E+01  0.7615492E+01  0.6464807E+01  0.2277220E-07 -0.1371372E-06 -0.3169953E-05 -0.2561756E-04  0.5713250E-08  0.2276793E-08  0.3085657E+00 -0.3038382E-01 -0.3276280E-06  0.1506927E-05
  0.4800000E+01  0.7598466E+01  0.7143034E+01 -0.6390716E-07  0.1476146E-06  0.5458647E-05 -0.6638213E-05  0.9226401E-09  0.2743730E-08  0.3036390E+00 -0.5695069E-01 -0.1803402E-06 -0.2316909E-05
  0.4900000E+01  0.7574211E+01  0.7846818E+01 -0.1942829E-07  0.9348150E-07  0.7293561E-05  0.1588174E-05 -0.3226373E-08  0.2544764E-07  0.2991515E+00 -0.8862548E-01  0.4352493E-06 -0.4264198E-05
  0.5000000E+01  0.7541369E+01  0.8574154E+01 -0.1319335E-06 -0.1114677E-07  0.5990526E-05 -0.3964160E-05  0.7928865E-09 -0.7524871E-08  0.2950256E+00 -0.1259480E+00  0.4538373E-06 -0.1864032E-07
  0.5100000E+01  0.7498655E+01  0.9321034E+01 -0.1435390E-06 -0.7131894E-06  0.6582603E-05  0.7867391E-05  0.1045119E-09 -0.5544773E-08  0.2913794E+00 -0.1690577E+00  0.6765739E-06  0.4220235E-06
  0.5200000E+01  0.7446787E+01  0.1008218E+02  0.1063297E-06 -0.2012239E-06  0.4576762E-05  0.9449803E-05 -0.1538684E-10 -0.5085387E-08  0.2885301E+00 -0.2178542E+00 -0.4746194E-06  0.3360920E-05
  0.5300000E+01  0.7385458E+01  0.1084459E+02  0.9112244E-07 -0.2934248E-06 -0.1245313E-05 -0.1116563E-04  0.7398943E-08  0.1380673E-10  0.2865184E+00 -0.2733424E+00 -0.8023180E-07  0.7606543E-06
  0.5400000E+01  0.7314104E+01  0.1160069E+02 -0.3197729E-06  0.1869921E-06  0.6768609E-06 -0.2603410E-05 -0.8331002E-08  0.1632347E-07  0.2854571E+00 -0.3353660E+00 -0.9010743E-06 -0.1424452E-05
  0.5500000E+01  0.7227532E+01  0.1234477E+02 -0.8628228E-07 -0.9604264E-09 -0.2955003E-06 -0.1092753E-04 -0.7387639E-08 -0.1148603E-07  0.2844420E+00 -0.4026777E+00  0.6766191E-06  0.2009973E-05
  0.5600000E+01  0.7132504E+01  0.1307006E+02 -0.5694996E-07  0.6757909E-07 -0.3235196E-06 -0.2214134E-04 -0.7023258E-09  0.1506074E-07  0.2845048E+00 -0.4747171E+00 -0.1813485E-06  0.2171417E-05
  0.5700000E+01  0.7028380E+01  0.1376939E+02  0.9982103E-08  0.2238085E-06  0.1848209E-05 -0.1176637E-04 -0.1130019E-09  0.1884916E-07  0.2856463E+00 -0.5511551E+00 -0.6155763E-06  0.1782902E-05
  0.5800000E+01  0.6921169E+01  0.1442626E+02  0.4826092E-07 -0.2702582E-06 -0.9036507E-06 -0.2825736E-04  0.2546430E-08 -0.1667457E-07  0.2884726E+00 -0.6334190E+00  0.9868153E-06  0.3672868E-05
  0.5900000E+01  0.6808558E+01  0.1503078E+02 -0.1350640E-06 -0.2782326E-07 -0.2472518E-05 -0.2910773E-04 -0.4556777E-08 -0.2424212E-09  0.2926493E+00 -0.7206146E+00  0.3152686E-06  0.1658528E-05
  0.6000000E+01  0.6690573E+01  0.1557558E+02 -0.2419862E-07  0.5841139E-06 -0.1270682E-05 -0.1279256E-04 -0.1870415E-08  0.2892735E-07  0.2979751E+00 -0.8118546E+00 -0.2761701E-06 -0.1518119E-05
  0.6100000E+01  0.6567748E+01  0.1607107E+02 -0.5950183E-08 -0.2402230E-06 -0.1027542E-05 -0.7100902E-05  0.4062874E-08  0.2353201E-07  0.3046082E+00 -0.9033322E+00  0.4877585E-06 -0.6033528E-05
  0.6200000E+01  0.6443552E+01  0.1650092E+02 -0.5075744E-07 -0.1445180E-05 -0.1736082E-06  0.9636853E-05 -0.8337791E-09 -0.4738698E-07  0.3126435E+00 -0.9955848E+00 -0.2581783E-06  0.7145503E-05
  0.6300000E+01  0.6318724E+01  0.1685081E+02 -0.4220510E-07  0.5520415E-06  0.1416979E-05  0.1443454E-04 -0.1317383E-09  0.1039693E-07  0.3221195E+00 -0.1089165E+01  0.1973675E-06  0.3525078E-05
  0.6400000E+01  0.6195445E+01  0.1712094E+02 -0.2769752E-07  0.2896413E-06  0.1126125E-05  0.2136078E-04  0.1455718E-08  0.1600914E-07  0.3330736E+00 -0.1181415E+01 -0.4488205E-06 -0.4935919E-05
  0.6500000E+01  0.6076111E+01  0.1731032E+02 -0.1171810E-06 -0.5151378E-07 -0.2196307E-05 -0.3720859E-05  0.4380541E-09  0.1134389E-07  0.3456152E+00 -0.1271425E+01 -0.4937896E-06 -0.8992053E-05
  0.6600000E+01  0.5961739E+01  0.1741889E+02  0.8668532E-07  0.1649023E-06 -0.2701486E-05 -0.2283305E-04  0.5637450E-10  0.5666834E-08  0.3594579E+00 -0.1358628E+01 -0.3425080E-06 -0.2308263E-05
  0.6700000E+01  0.5852520E+01  0.1745136E+02 -0.3597364E-07  0.7828930E-07 -0.2704889E-05 -0.2729481E-04  0.8653788E-09  0.1886344E-07  0.3744572E+00 -0.1441868E+01  0.2699573E-06 -0.2416776E-05
  0.6800000E+01  0.5749316E+01  0.1740236E+02  0.8042073E-08  0.5937181E-06 -0.4227131E-05 -0.3506359E-04  0.3852769E-09 -0.2096368E-07  0.3904661E+00 -0.1520328E+01  0.2510137E-06 -0.3694556E-05
  0.6900000E+01  0.5652526E+01  0.1727125E+02 -0.1209707E-07  0.4858011E-06 -0.5180355E-05 -0.1722098E-04 -0.6605254E-10  0.4156147E-08  0.4071838E+00 -0.1593166E+01  0.1352054E-06 -0.1790274E-05
  0.7000000E+01  0.5565656E+01  0.1706547E+02  0.5004196E-07 -0.5660113E-06 -0.5054483E-05 -0.3209088E-04  0.8973110E-09 -0.5536155E-07  0.4247759E+00 -0.1659317E+01  0.1786940E-06 -0.4275262E-07
  0.7100000E+01  0.5490768E+01  0.1678786E+02  0.2549660E-08  0.8568750E-06 -0.3425705E-05 -0.2298274E-04  0.4155434E-09 -0.5990972E-07  0.4434872E+00 -0.1719674E+01  0.7920421E-07  0.3304622E-06
  0.7200000E+01  0.5425006E+01  0.1645766E+02 -0.2950805E-09 -0.2682791E-06 -0.1085326E-05 -0.6831851E-05 -0.1338919E-09 -0.4503425E-07  0.4626604E+00 -0.1768916E+01 -0.7097773E-07  0.5416891E-06
  0.7300000E+01  0.5369205E+01  0.1607228E+02 -0.3289131E-07  0.1849257E-06 -0.6349509E-06  0.7696144E-06 -0.1253073E-08  0.4443006E-09  0.4819918E+00 -0.1807785E+01  0.1989705E-06 -0.5038919E-05
  0.7400000E+01  0.5326296E+01  0.1563596E+02  0.4357708E-08  0.3239256E-06 -0.2301206E-05 -0.1772081E-04 -0.2088222E-08 -0.4630175E-07  0.5017568E+00 -0.1836751E+01 -0.4192844E-07 -0.5947491E-05
  0.7500000E+01  0.5297342E+01  0.1515455E+02  0.4572018E-07 -0.1600129E-06 -0.4066882E-06 -0.8756822E-05 -0.1593185E-08  0.1158420E-07  0.5221224E+00 -0.1857537E+01 -0.9664503E-07  0.3319697E-05
  0.7600000E+01  0.5282008E+01  0.1463981E+02 -0.1079905E-07  0.1814915E-06 -0.2111464E-05 -0.7807765E-05  0.8425263E-09 -0.1764212E-07  0.5428390E+00 -0.1869213E+01  0.3730478E-07 -0.3015629E-05
  0.7700000E+01  0.5278118E+01  0.1411476E+02 -0.1561780E-07 -0.3434252E-06 -0.1457910E-05 -0.1656727E-04 -0.4439404E-08  0.9733126E-08  0.5633337E+00 -0.1867882E+01  0.3206624E-07 -0.2640002E-05
  0.7800000E+01  0.5287572E+01  0.1358215E+02  0.4779744E-07 -0.2192683E-06 -0.9716393E-06 -0.1927541E-04 -0.1780561E-09 -0.8150037E-08  0.5840526E+00 -0.1854920E+01 -0.2613354E-06 -0.5617030E-06
  0.7900000E+01  0.5310804E+01  0.1305296E+02 -0.6769772E-07 -0.2416200E-06 -0.2278679E-05  0.2681190E-07  0.7834354E-09 -0.2896412E-07  0.6049834E+00 -0.1830381E+01 -0.3556533E-07 -0.3371189E-05
  0.8000000E+01  0.5347438E+01  0.1253188E+02  0.5186303E-07 -0.3022724E-06 -0.4137385E-05  0.1578114E-04  0.2532441E-09 -0.3463835E-07  0.6259055E+00 -0.1795148E+01  0.1116356E-06  0.1919437E-05
  0.8100000E+01  0.5398702E+01  0.1203127E+02 -0.3952372E-09 -0.8416246E-06 -0.3512273E-05  0.2096181E-04  0.3490431E-10  0.5016526E-08  0.6469629E+00 -0.1748652E+01  0.1968939E-06 -0.1156548E-05
  0.8200000E+01  0.5463015E+01  0.1158062E+02  0.4804262E-07  0.3676105E-06 -0.2883933E-05 -0.2478628E-05  0.1909313E-08 -0.3862596E-07  0.6679869E+00 -0.1686852E+01 -0.3955598E-07  0.6042264E-06
  0.8300001E+01  0.5540046E+01  0.1117788E+02  0.9537639E-07 -0.5299225E-06 -0.1415224E-05 -0.2835734E-05 -0.4130132E-09 -0.9269080E-07  0.6888393E+00 -0.1612468E+01 -0.1434531E-06 -0.9948303E-06
  0.8400001E+01  0.5628366E+01  0.1083359E+02 -0.4281035E-07 -0.2779416E-07 -0.7886445E-06  0.7859597E-05 -0.4564848E-09  0.3513667E-07  0.7092760E+00 -0.1525775E+01  0.5214691E-07 -0.5026689E-06
  0.8500001E+01  0.5730453E+01  0.1058976E+02 -0.1298373E-07 -0.4440662E-06 -0.7591562E-07  0.2052454E-04 -0.6631336E-09 -0.5732922E-08  0.7300295E+00 -0.1421913E+01  0.9633902E-08 -0.2812830E-05
  0.8600000E+01  0.5841774E+01  0.1045995E+02  0.3057933E-07 -0.4966278E-06 -0.6638634E-06  0.2273199E-04  0.6759240E-09 -0.4140709E-07  0.7500703E+00 -0.1299648E+01  0.3841190E-06 -0.1628671E-05
  0.8700000E+01  0.5963119E+01  0.1044882E+02  0.1657915E-07 -0.7717463E-06 -0.3996951E-06  0.1560046E-04 -0.4895583E-08  0.3625336E-08  0.7696058E+00 -0.1161632E+01 -0.1480616E-07 -0.4215411E-05
  0.8800001E+01  0.6095161E+01  0.1058938E+02 -0.3087651E-07  0.1464505E-06 -0.5041725E-06  0.1770793E-04  0.6811217E-09 -0.1749371E-07  0.7892141E+00 -0.1004212E+01 -0.1429118E-06 -0.1386650E-05
  0.8900001E+01  0.6236155E+01  0.1089258E+02  0.5217760E-07 -0.7269318E-07  0.1207806E-05  0.1976276E-04  0.2764373E-08 -0.2417785E-07  0.8087313E+00 -0.8270579E+00  0.1036158E-06  0.5595145E-07
  0.9000001E+01  0.6380722E+01  0.1138700E+02 -0.4836409E-07 -0.9479845E-07  0.1464385E-05  0.1342024E-04 -0.3165438E-08  0.1903795E-07  0.8271582E+00 -0.6284984E+00 -0.2625000E-06 -0.9735102E-06
  0.9100000E+01  0.6527756E+01  0.1211754E+02 -0.1610625E-07 -0.6423215E-07  0.1877214E-05  0.1711872E-04 -0.1977249E-09 -0.1831103E-07  0.8445933E+00 -0.4018822E+00 -0.3523389E-06  0.9299692E-06
  0.9200000E+01  0.6676096E+01  0.1309794E+02 -0.1834807E-08 -0.1196167E-07  0.1427209E-05  0.1986327E-04 -0.7640817E-08 -0.3737030E-08  0.8611752E+00 -0.1476397E+00 -0.2489388E-06  0.5260769E-06
  0.9300001E+01  0.6824819E+01  0.1434863E+02  0.3905546E-08 -0.1100125E-07  0.8483085E-06  0.2478006E-04  0.3482124E-08 -0.4272103E-09  0.8769781E+00  0.1340486E+00  0.3320582E-06 -0.4134363E-06
  0.9400001E+01  0.6964689E+01  0.1588805E+02 -0.1165392E-07  0.1668232E-06  0.8637165E-06  0.1787854E-04 -0.3387450E-08  0.9917663E-08  0.8905703E+00  0.4443136E+00 -0.5158847E-06  0.5338461E-07
  0.9500001E+01  0.7090504E+01  0.1773559E+02  0.2067291E-07  0.3137393E-07  0.4106228E-06  0.7127179E-05  0.3183871E-08  0.5640691E-08  0.9014609E+00  0.7850187E+00  0.2243339E-06  0.2186107E-07
  0.9600000E+01  0.7204009E+01  0.1991530E+02  0.5053152E-07  0.4190952E-07 -0.2974085E-06 -0.1195459E-04 -0.2378448E-08 -0.2126384E-08  0.9106818E+00  0.1158110E+01 -0.3192343E-06  0.3307159E-06
  0.9700001E+01  0.7291420E+01  0.2243976E+02 -0.2781966E-07 -0.4941830E-07  0.2283863E-06 -0.1661776E-04  0.1504210E-08 -0.1097521E-07  0.9162085E+00  0.1567906E+01  0.2016674E-06  0.8685056E-06
  0.9800001E+01  0.7344719E+01  0.2526013E+02  0.7935247E-08 -0.3783498E-07  0.5742913E-06 -0.2872723E-05 -0.8545032E-08  0.4654176E-07  0.9171334E+00  0.2003416E+01 -0.8446495E-07 -0.3046947E-05
  0.9900001E+01  0.7363168E+01  0.2836547E+02 -0.1193551E-07 -0.4441245E-06  0.8367726E-06 -0.1327950E-05  0.4975176E-08 -0.4605826E-07  0.9139454E+00  0.2464397E+01 -0.4049594E-07 -0.1495118E-05
  0.1000000E+02  0.7337389E+01  0.3167634E+02  0.5434267E-07  0.1979060E-06 -0.1696047E-05  0.6149392E-05  0.3087275E-08 -0.2201921E-07  0.9054545E+00  0.2944979E+01  0.8662273E-07 -0.2149044E-05
  0.1010000E+02  0.7263721E+01  0.3513347E+02  0.6685236E-08 -0.2955785E-06 -0.1423084E-05  0.1135601E-04  0.2047019E-08  0.3915040E-07  0.8915864E+00  0.3436702E+01 -0.4401504E-08  0.1217802E-05
  0.1020000E+02  0.7137337E+01  0.3860444E+02 -0.1923135E-07 -0.2094312E-06 -0.2563204E-05 -0.1124146E-04 -0.2124291E-08  0.6053103E-08  0.8715922E+00  0.3922199E+01 -0.9485807E-07 -0.4295498E-06
  0.1030000E+02  0.6958448E+01  0.4201302E+02  0.1933286E-07  0.8932548E-06 -0.1808252E-05 -0.1314166E-04  0.4413328E-08 -0.4377843E-07  0.8454760E+00  0.4398952E+01  0.9344617E-08 -0.3047353E-06
  0.1040000E+02  0.6731431E+01  0.4526961E+02  0.9156513E-08  0.2264278E-06 -0.2015444E-06 -0.3240078E-04 -0.1467598E-08 -0.2120124E-07  0.8141802E+00  0.4859181E+01 -0.9698419E-07 -0.8661682E-06
  0.1050000E+02  0.6463854E+01  0.4814716E+02  0.3387132E-07  0.5831243E-06 -0.5628594E-06 -0.1423310E-04 -0.7773331E-09 -0.1059912E-07  0.7783056E+00  0.5269911E+01 -0.1216640E-06 -0.2727492E-05
  0.1060000E+02  0.6162212E+01  0.5061346E+02 -0.3625623E-07  0.1386506E-06 -0.3929444E-06 -0.1125614E-04  0.1234756E-09  0.4418045E-07  0.7386441E+00  0.5632160E+01 -0.3849307E-07  0.2546756E-05
  0.1070000E+02  0.5835075E+01  0.5264035E+02  0.3030062E-08  0.2798624E-06 -0.3602002E-06 -0.2455983E-04 -0.1132994E-09 -0.3373820E-07  0.6960995E+00  0.5947722E+01  0.1740151E-06 -0.5293969E-06
  0.1080000E+02  0.5496107E+01  0.5414177E+02 -0.2295733E-07 -0.4137401E-06  0.9564428E-06 -0.8977506E-05  0.5839785E-10 -0.3401944E-08  0.6520119E+00  0.6201698E+01 -0.1624801E-06  0.1777137E-05
  0.1090000E+02  0.5155063E+01  0.5510778E+02 -0.3539587E-07 -0.4185131E-06  0.1298772E-05 -0.1892843E-04 -0.8651730E-10  0.7618652E-09  0.6076493E+00  0.6393469E+01 -0.1476619E-06  0.3027134E-05
  0.1100000E+02  0.4822201E+01  0.5558817E+02 -0.1929584E-07  0.1516892E-06  0.2268678E-05 -0.5746617E-05  0.1280061E-09 -0.1465531E-07  0.5640246E+00  0.6530982E+01 -0.5512371E-06  0.5146831E-08
  0.1110000E+02  0.4502820E+01  0.5561014E+02  0.5780126E-07  0.2377201E-06  0.8346418E-06 -0.4710986E-05  0.2746228E-08  0.2396286E-07  0.5214665E+00  0.6617858E+01  0.6089393E-06  0.2285378E-05
  0.1120000E+02  0.4204049E+01  0.5520064E+02 -0.3820917E-07  0.2641464E-06  0.1009088E-05 -0.7404873E-05 -0.7296377E-09 -0.2982294E-07  0.4810835E+00  0.6653181E+01  0.3878871E-06  0.7492818E-06
  0.1130000E+02  0.3926703E+01  0.5445094E+02 -0.7165208E-08  0.5293405E-06  0.1281196E-05 -0.1104980E-04  0.5174395E-09 -0.8574752E-08  0.4426164E+00  0.6647007E+01  0.1969306E-06 -0.2419118E-05
  0.1140000E+02  0.3672233E+01  0.5341845E+02 -0.1168136E-06  0.8591451E-07  0.1313652E-05  0.1761284E-05 -0.4226893E-09 -0.1554073E-07  0.4060204E+00  0.6608573E+01  0.4786486E-06 -0.6901410E-06
  0.1150000E+02  0.3447758E+01  0.5217687E+02 -0.4183865E-07  0.5642651E-06  0.1233367E-05 -0.2039917E-04 -0.1468428E-08  0.4205720E-08  0.3728299E+00  0.6542139E+01 -0.8818247E-07 -0.1115660E-05
  0.1160000E+02  0.3247774E+01  0.5075259E+02 -0.1779348E-07  0.1837034E-06  0.1277149E-05 -0.1936584E-04  0.1894309E-08 -0.1045962E-07  0.3419746E+00  0.6450818E+01 -0.4254300E-06 -0.1662338E-06
  0.1170000E+02  0.3070000E+01  0.4918166E+02 -0.3766086E-08 -0.3988389E-06  0.6409861E-06 -0.1516387E-04  0.1593791E-08 -0.2428463E-07  0.3129723E+00  0.6337663E+01  0.1412257E-06  0.5721622E-06
  0.1180000E+02  0.2914679E+01  0.4750138E+02 -0.2859081E-07 -0.1132139E-06  0.9250640E-06 -0.5872098E-05 -0.5905126E-08 -0.9695356E-11  0.2862335E+00  0.6205117E+01  0.4551665E-06  0.6366872E-07
  0.1190000E+02  0.2780102E+01  0.4573696E+02  0.6503117E-07  0.3654277E-06  0.4826284E-06 -0.1517098E-04 -0.5211441E-08  0.1370875E-08  0.2615151E+00  0.6056076E+01  0.4171654E-07  0.3840159E-07
  0.1200000E+02  0.2665408E+01  0.4393724E+02  0.4567361E-07 -0.7124618E-07  0.4778449E-06 -0.7570623E-05 -0.2268497E-08  0.4562692E-08  0.2387238E+00  0.5895261E+01  0.9337085E-07 -0.1351376E-05
  0.1210000E+02  0.2569358E+01  0.4208731E+02 -0.1199655E-06 -0.3771856E-07 -0.2354392E-06  0.1999604E-05 -0.4358926E-08  0.1180744E-09  0.2178677E+00  0.5718803E+01 -0.4680146E-06  0.2374236E-08
  0.1220000E+02  0.2489861E+01  0.4018629E+02  0.4857000E-08  0.1107692E-06  0.1546171E-06 -0.7679806E-05  0.3725649E-08  0.8265282E-09  0.1988445E+00  0.5524880E+01  0.6297612E-06  0.6539694E-06
  0.1230000E+02  0.2425816E+01  0.3825413E+02  0.7015679E-07  0.2307934E-06  0.3583924E-06 -0.6635622E-05 -0.3429995E-09 -0.5538849E-07  0.1814059E+00  0.5313854E+01 -0.9041422E-06 -0.1605492E-06
  0.1240000E+02  0.2378371E+01  0.3633870E+02  0.4731719E-08  0.7523340E-07 -0.1523838E-06 -0.6295195E-06 -0.1414656E-09  0.2121713E-07  0.1661567E+00  0.5094359E+01  0.1152686E-06  0.8798338E-07
  0.1250000E+02  0.2346486E+01  0.3443185E+02 -0.4132278E-07  0.3064924E-06 -0.3425399E-06  0.6643697E-05  0.6877633E-09  0.1482532E-07  0.1530842E+00  0.4863210E+01  0.2775764E-06  0.3484704E-06
  0.1260000E+02  0.2329297E+01  0.3252332E+02  0.5618425E-07  0.3212772E-06 -0.5601465E-06  0.3009563E-05 -0.1728259E-08  0.2759609E-07  0.1420798E+00  0.4615556E+01 -0.5485539E-06 -0.1986359E-05
  0.1270000E+02  0.2327953E+01  0.3063578E+02 -0.4965068E-07 -0.3951718E-06 -0.3419671E-06  0.9219873E-05  0.1789370E-09  0.9993247E-08  0.1336550E+00  0.4356474E+01  0.2710101E-07  0.7467972E-06
  0.1280000E+02  0.2341003E+01  0.2879629E+02 -0.9440555E-08  0.1269364E-06 -0.4561795E-06  0.7117929E-05  0.1186432E-08  0.5550346E-07  0.1277066E+00  0.4090479E+01 -0.4347925E-07  0.8294967E-06
  0.1290000E+02  0.2366576E+01  0.2702228E+02  0.1820230E-07 -0.1658773E-06 -0.3365836E-06  0.6708164E-05 -0.8964681E-11 -0.5105238E-08  0.1242349E+00  0.3818741E+01 -0.1362315E-06 -0.1884579E-05
  0.1300000E+02  0.2406108E+01  0.2535230E+02 -0.5037649E-07  0.1815497E-06 -0.5861497E-06 -0.1255902E-05  0.4618938E-10 -0.1102592E-08  0.1236091E+00  0.3551173E+01 -0.2883084E-07 -0.1275427E-05
  0.1310000E+02  0.2457698E+01  0.2379457E+02  0.5021855E-07 -0.2519446E-06 -0.4011274E-06  0.7107655E-05 -0.1433213E-09 -0.3645726E-07  0.1257990E+00  0.3289629E+01 -0.4727411E-07 -0.6638774E-06
  0.1320000E+02  0.2518759E+01  0.2237559E+02 -0.4828590E-08 -0.2578963E-07 -0.6567536E-06  0.3367414E-05 -0.4862434E-09 -0.4077722E-07  0.1304253E+00  0.3039824E+01 -0.1375631E-06  0.1541090E-05
  0.1330000E+02  0.2586875E+01  0.2115153E+02  0.4745019E-07 -0.1642566E-06 -0.5759894E-06  0.1335672E-05  0.9748913E-10 -0.1324149E-07  0.1372457E+00  0.2817919E+01  0.4148287E-07  0.1249558E-05
  0.1340000E+02  0.2659856E+01  0.2008426E+02  0.3652748E-07 -0.6921255E-08 -0.5792094E-06  0.3303443E-05  0.1355564E-08 -0.1154320E-07  0.1458369E+00  0.2616516E+01 -0.2424793E-06 -0.2496843E-05
  0.1350000E+02  0.2735068E+01  0.1920130E+02 -0.3686485E-07  0.1388653E-06 -0.5694278E-06  0.4878582E-06  0.7381974E-09  0.3249861E-08  0.1557886E+00  0.2446075E+01  0.4987891E-07  0.3571898E-06
  0.1360000E+02  0.2809742E+01  0.1849512E+02 -0.3480048E-07  0.9940049E-07 -0.7649599E-07  0.6310843E-06  0.7314998E-10 -0.2354138E-07  0.1664278E+00  0.2306739E+01  0.1239632E-06  0.4898300E-06
  0.1370000E+02  0.2880586E+01  0.1794220E+02 -0.3568937E-08 -0.4532194E-07  0.1959453E-06  0.1178415E-05 -0.1431756E-08 -0.1189891E-07  0.1771513E+00  0.2198108E+01 -0.7191647E-07  0.8683537E-06
  0.1380000E+02  0.2946633E+01  0.1753308E+02 -0.2234668E-07 -0.7842755E-07  0.1358777E-06 -0.2098109E-06  0.6605829E-09 -0.3777324E-08  0.1875564E+00  0.2118987E+01  0.6149357E-07 -0.1997680E-06
  0.1390000E+02  0.3007244E+01  0.1723893E+02  0.2829981E-07 -0.9883661E-07 -0.5474399E-07  0.2086986E-06 -0.1462634E-08 -0.6733650E-08  0.1973985E+00  0.2067163E+01 -0.8592833E-07  0.4379567E-06
  0.1400000E+02  0.3062385E+01  0.1702266E+02 -0.1485543E-07  0.2860179E-07 -0.8022367E-07 -0.1453467E-05 -0.1083638E-08 -0.2628664E-08  0.2066511E+00  0.2033799E+01  0.1579472E-06  0.2454522E-07
  0.1410000E+02  0.3109205E+01  0.1688195E+02  0.4550518E-07 -0.1091394E-07 -0.7372764E-07 -0.1713827E-05 -0.3719652E-09  0.2335899E-08  0.2143907E+00  0.2021004E+01 -0.2156653E-06 -0.2563209E-06
  0.1420000E+02  0.3151257E+01  0.1678300E+02  0.1440845E-08  0.5947368E-07  0.5389064E-06 -0.1213955E-05  0.1174159E-08 -0.4892806E-09  0.2214528E+00  0.2020439E+01  0.2922793E-06  0.1769725E-06
  0.1430000E+02  0.3187346E+01  0.1671342E+02 -0.5385226E-08  0.2465094E-07  0.2592948E-06 -0.9238674E-06 -0.3574605E-09 -0.4162696E-08  0.2273011E+00  0.2030232E+01 -0.3034483E-07  0.3206134E-07
  0.1440000E+02  0.3218796E+01  0.1666737E+02  0.3668295E-08  0.6795744E-08  0.2621923E-06  0.1189126E-05 -0.6975157E-09  0.9356875E-09  0.2322810E+00  0.2047680E+01  0.3053434E-06 -0.2869047E-07
  0.1450000E+02  0.3246061E+01  0.1662597E+02  0.2669725E-07 -0.1300941E-07  0.4323192E-06  0.1539271E-05  0.3883333E-09 -0.8559375E-09  0.2363895E+00  0.2069040E+01  0.1007768E-06  0.1356975E-06
  0.1460000E+02  0.3269205E+01  0.1658607E+02 -0.4710435E-08 -0.7246854E-08  0.3447355E-06 -0.9432706E-06  0.5518307E-09 -0.6290085E-08  0.2396348E+00  0.2092567E+01 -0.9005480E-07 -0.7456401E-07
  0.1470000E+02  0.3290564E+01  0.1653720E+02  0.1672975E-08  0.1928129E-07  0.9300357E-09 -0.1089833E-05  0.2816800E-09 -0.4883416E-08  0.2423960E+00  0.2116749E+01 -0.2299109E-06 -0.2497825E-06
  0.1480000E+02  0.3309041E+01  0.1647732E+02  0.4509717E-07  0.1986336E-07 -0.2017595E-06 -0.1602570E-05 -0.8029691E-09  0.4211195E-08  0.2444901E+00  0.2139766E+01 -0.2023529E-07  0.2987491E-07
  0.1490000E+02  0.3324877E+01  0.1640062E+02  0.3758105E-08 -0.4547474E-07 -0.5130557E-06 -0.7432363E-06 -0.6006251E-09 -0.2177584E-08  0.2459958E+00  0.2159928E+01 -0.7516455E-09  0.9816233E-08
  0.1500000E+02  0.3340245E+01  0.1631427E+02  0.4912727E-08 -0.1609442E-07 -0.1867810E-06 -0.4779977E-06 -0.3062345E-09 -0.6667169E-09  0.2473035E+00  0.2178422E+01 -0.1595437E-06  0.6186718E-07
  0.1510000E+02  0.3353836E+01  0.1621169E+02  0.1163382E-07 -0.5851325E-07 -0.7238154E-06 -0.5100046E-06 -0.6743050E-09 -0.2072700E-08  0.2481711E+00  0.2193559E+01  0.1273616E-06 -0.4087754E-06