VARIABLES="w (rad/s)"
"abs(F   1   1)" "angle(F   1   1)"
"abs(F   1   2)" "angle(F   1   2)"
"abs(F   1   3)" "angle(F   1   3)"
"abs(F   1   4)" "angle(F   1   4)"
"abs(F   1   5)" "angle(F   1   5)"
"abs(F   1   6)" "angle(F   1   6)"
"abs(F   2   7)" "angle(F   2   7)"
"abs(F   2   8)" "angle(F   2   8)"
"abs(F   2   9)" "angle(F   2   9)"
"abs(F   2  10)" "angle(F   2  10)"
"abs(F   2  11)" "angle(F   2  11)"
"abs(F   2  12)" "angle(F   2  12)"
Zone t="FKforce - beta =   0.000",I=   260,F=POINT
  0.2000000E-01  0.2903178E+03 -0.1570801E+01  0.4040833E+00  0.3141585E+01  0.2800688E+07  0.5671692E-11  0.1813202E+00 -0.2367956E-03  0.2937864E+04 -0.1570932E+01  0.8694162E-04 -0.5383416E-02  0.3544503E+03 -0.1571126E+01  0.1006527E+01 -0.2775850E-07  0.2766820E+06  0.4101721E-09  0.2373047E+00  0.3255208E-03  0.2032085E+04 -0.1569866E+01  0.7748604E-06 -0.1570796E+01
  0.4000000E-01  0.1161089E+04 -0.1570771E+01  0.1831970E+00 -0.3141452E+01  0.2799819E+07  0.6131159E-11  0.1717224E+00 -0.3141582E+01  0.1174801E+05 -0.1570815E+01  0.2620616E-04 -0.7643018E-01  0.1415096E+04 -0.1570785E+01  0.6181679E+00  0.3141586E+01  0.2756083E+06  0.6920504E-10  0.3136328E+02  0.1398738E-05  0.8125691E+04 -0.1570696E+01  0.3337860E-05 -0.1570796E+01
  0.6000000E-01  0.2611756E+04 -0.1570806E+01  0.3870010E+00  0.1746165E-04  0.2798346E+07 -0.1768748E-09  0.1228639E-01 -0.3119252E+01  0.2642014E+05 -0.1570798E+01  0.2711166E-04  0.2219049E+00  0.3173860E+04 -0.1570747E+01  0.6658154E+00  0.3141551E+01  0.2738599E+06 -0.3565920E-08  0.7242188E+01 -0.3141525E+01  0.1827306E+05 -0.1570679E+01  0.2980232E-05 -0.1570796E+01
  0.8000000E-01  0.4641391E+04 -0.1570793E+01  0.5192566E-01 -0.3141164E+01  0.2796320E+07 -0.2677213E-10  0.7914505E+01  0.1597715E-04  0.4693703E+05 -0.1570795E+01  0.8704855E-05 -0.1998735E+01  0.5617399E+04 -0.1570762E+01  0.5575180E-01 -0.1117217E-03  0.2713996E+06 -0.4160472E-08  0.5937695E+02 -0.3160875E-04  0.3246033E+05 -0.1570906E+01  0.1192093E-04 -0.1570796E+01
  0.9999999E-01  0.7248680E+04 -0.1570797E+01  0.9842769E-03 -0.1314120E-01  0.2793687E+07  0.3550223E-10  0.6760773E+01  0.8684004E-05  0.7327449E+05 -0.1570795E+01  0.1860672E-03 -0.2540841E+00  0.8727275E+04 -0.1570794E+01  0.4662704E+00 -0.3141468E+01  0.2682872E+06 -0.1353621E-07  0.1998730E+02 -0.1465774E-03  0.5066968E+05 -0.1570848E+01  0.1430511E-05  0.1570796E+01
  0.1200000E+00  0.1043191E+05 -0.1570797E+01  0.3855900E-01 -0.3140100E+01  0.2790460E+07  0.1264521E-10  0.4622177E+01  0.6528921E-04  0.1054015E+06 -0.1570800E+01  0.1220109E-03  0.1903234E+00  0.1248014E+05 -0.1570818E+01  0.6599503E+00 -0.3141515E+01  0.2645470E+06 -0.6690756E-08  0.1640527E+02  0.9673195E-04  0.7287567E+05 -0.1570848E+01  0.6675720E-05  0.1570796E+01
  0.1400000E+00  0.1418891E+05 -0.1570796E+01  0.5598221E+00 -0.3141581E+01  0.2786630E+07 -0.2737857E-10  0.1055600E+02  0.2982886E-03  0.1432794E+06 -0.1570797E+01  0.3246334E-04 -0.2958837E+01  0.1684804E+05 -0.1570803E+01  0.1116558E+01 -0.1339900E-03  0.2601641E+06 -0.1173013E-08  0.1377734E+02 -0.6645166E-05  0.9904756E+05 -0.1570838E+01  0.1430511E-05  0.1570796E+01
  0.1600000E+00  0.1851714E+05 -0.1570798E+01  0.3842191E-01 -0.3137745E+01  0.2782194E+07 -0.7061221E-10  0.1218599E+02 -0.3141586E+01  0.1868627E+06 -0.1570794E+01  0.1041030E-03  0.2653884E+01  0.2179887E+05 -0.1570796E+01  0.3115675E+00  0.3140593E+01  0.2552215E+06 -0.8370104E-08  0.2592383E+02  0.3141378E+01  0.1291501E+06 -0.1570675E+01  0.1192093E-04  0.1570796E+01
  0.1800000E+00  0.2341361E+05 -0.1570795E+01  0.3845215E+00 -0.3141535E+01  0.2777144E+07 -0.2232107E-09  0.7157593E+01 -0.2693937E-03  0.2360992E+06 -0.1570796E+01  0.8228857E-04  0.7225097E+00  0.2729641E+05 -0.1570801E+01  0.8999004E+00  0.3141498E+01  0.2497245E+06  0.5132609E-08  0.1250196E+02  0.3140775E+01  0.1631372E+06 -0.1570817E+01  0.3242493E-04 -0.1570796E+01
  0.2000000E+00  0.2887465E+05 -0.1570797E+01  0.5458908E+00 -0.1658563E-03  0.2771465E+07 -0.3853973E-10  0.1232788E+01  0.7241782E-03  0.2909279E+06 -0.1570795E+01  0.2258842E-03 -0.3029231E+00  0.3330136E+05 -0.1570796E+01  0.1212021E+01  0.3141370E+01  0.2437160E+06  0.1026786E-06  0.9206056E+01 -0.3141268E+01  0.2009611E+06 -0.1570804E+01  0.2861023E-05  0.1570796E+01
  0.2200000E+00  0.3489628E+05 -0.1570796E+01  0.5335541E+00  0.2833028E-03  0.2765148E+07  0.6373582E-09  0.3074585E+01 -0.4183163E-03  0.3512813E+06 -0.1570797E+01  0.8855886E-04  0.1533118E+01  0.3977102E+05 -0.1570806E+01  0.4524479E+00 -0.3190698E-03  0.2372460E+06 -0.7229155E-07  0.1767969E+02  0.3140947E+01  0.2425633E+06 -0.1570813E+01  0.8583069E-05  0.1570796E+01
  0.2400000E+00  0.4147393E+05 -0.1570797E+01  0.2940534E+00 -0.2956182E-02  0.2758186E+07  0.1232294E-08  0.6845124E+01 -0.3747754E-03  0.4170839E+06 -0.1570795E+01  0.2197874E-03  0.1094393E+00  0.4666052E+05 -0.1570793E+01  0.1012619E+01 -0.6952762E-03  0.2303556E+06  0.7842834E-07  0.2644776E+02 -0.3140956E+01  0.2878758E+06 -0.1570803E+01  0.5722046E-05  0.1570796E+01
  0.2600000E+00  0.4860218E+05 -0.1570795E+01  0.4554602E+00 -0.3139916E+01  0.2750563E+07  0.3356247E-09  0.1169888E+02 -0.2086464E-03  0.4882523E+06 -0.1570795E+01  0.1788567E-03 -0.2982044E+01  0.5392291E+05 -0.1570787E+01  0.6413676E-01 -0.3138767E+01  0.2230830E+06  0.1641591E-08  0.2827639E+01 -0.3140319E+01  0.3368326E+06 -0.1570797E+01  0.0000000E+00  0.0000000E+00
  0.2800000E+00  0.5627545E+05 -0.1570796E+01  0.3016954E-01  0.3127695E+01  0.2742266E+07  0.7817842E-09  0.9149033E+01 -0.4417073E-04  0.5646949E+06 -0.1570796E+01  0.1010423E-03  0.1488541E+01  0.6150963E+05 -0.1570796E+01  0.8782393E-01 -0.1202627E-02  0.2154941E+06 -0.1387844E-06  0.1060209E+02 -0.2792099E-02  0.3893432E+06 -0.1570818E+01  0.1907349E-04  0.1570796E+01
  0.3000000E+00  0.6448674E+05 -0.1570796E+01  0.1867686E+00 -0.3297323E-02  0.2733284E+07 -0.1451472E-09  0.8756332E+01  0.3141414E+01  0.6463094E+06 -0.1570796E+01  0.2630426E-03 -0.1648100E+01  0.6937144E+05 -0.1570797E+01  0.6151066E+00 -0.3141335E+01  0.2076296E+06  0.1446292E-06  0.1126369E+02 -0.1566021E-02  0.4453222E+06 -0.1570793E+01  0.1144409E-04 -0.1570796E+01
  0.3200000E+00  0.7322905E+05 -0.1570796E+01  0.7012104E+00  0.1112513E-02  0.2723597E+07 -0.1470640E-08  0.8600250E+01 -0.6841859E-04  0.7329918E+06 -0.1570796E+01  0.2968232E-03 -0.1841229E+01  0.7745832E+05 -0.1570799E+01  0.2574997E+00 -0.3141481E+01  0.1995349E+06 -0.1400963E-06  0.2106458E+01  0.3138058E+01  0.5046676E+06 -0.1570791E+01  0.2479553E-04  0.1570796E+01
  0.3400000E+00  0.8249448E+05 -0.1570797E+01  0.3362885E+00 -0.7295305E-03  0.2713196E+07  0.1189458E-08  0.4119123E+00 -0.3139108E+01  0.8246231E+06 -0.1570796E+01  0.2504383E-03  0.1264622E+01  0.8572084E+05 -0.1570795E+01  0.5462095E+00 -0.6490705E-03  0.1912685E+06 -0.1818911E-06  0.9557134E+01 -0.3140635E+01  0.5672751E+06 -0.1570814E+01  0.1716614E-04 -0.1570796E+01
  0.3600000E+00  0.9227342E+05 -0.1570796E+01  0.2105782E-01 -0.2811646E-01  0.2702059E+07  0.3063550E-08  0.8475204E+01 -0.3141407E+01  0.9210757E+06 -0.1570796E+01  0.1009933E-03  0.6914044E+00  0.9410952E+05 -0.1570799E+01  0.3769550E+00  0.1903781E-03  0.1828690E+06 -0.1134799E-07  0.1691654E+01  0.1710284E-01  0.6330218E+06 -0.1570793E+01  0.7629395E-05  0.1570796E+01
  0.3800000E+00  0.1025566E+06 -0.1570797E+01  0.4426025E-01 -0.9809417E-02  0.2690174E+07 -0.2915431E-08  0.8077385E+01 -0.3141307E+01  0.1022216E+07 -0.1570796E+01  0.4955584E-03 -0.1470287E+01  0.1025765E+06 -0.1570794E+01  0.1328395E+00 -0.3139507E+01  0.1743902E+06 -0.1539965E-07  0.6074513E+00 -0.3131746E+01  0.7017815E+06 -0.1570802E+01  0.2861023E-04 -0.1570796E+01
  0.4000000E+00  0.1133326E+06 -0.1570796E+01  0.1179357E+00 -0.3008142E-02  0.2677526E+07 -0.4473588E-08  0.5715615E+01  0.4611850E-03  0.1127900E+07 -0.1570796E+01  0.1089973E-03  0.1070271E+01  0.1110751E+06 -0.1570796E+01  0.5486379E+00  0.3140265E+01  0.1658825E+06 -0.2546160E-06  0.1042269E+01  0.3830755E-01  0.7734217E+06 -0.1570803E+01  0.2442598E-04  0.2245537E+01
  0.4200000E+00  0.1245903E+06 -0.1570796E+01  0.6704483E+00 -0.1927410E-03  0.2664089E+07  0.3167353E-08  0.3458611E+01 -0.7508376E-03  0.1237972E+07 -0.1570796E+01  0.4719160E-03  0.1583566E+01  0.1195605E+06 -0.1570796E+01  0.1698887E+00  0.8978955E-02  0.1573763E+06 -0.2869937E-06  0.9611843E+01  0.3139243E+01  0.8477924E+06 -0.1570793E+01  0.2288818E-04  0.1570796E+01
  0.4400000E+00  0.1363157E+06 -0.1570796E+01  0.7668434E-01 -0.3135782E+01  0.2649855E+07  0.5263131E-08  0.1946267E+01 -0.3140479E+01  0.1352270E+07 -0.1570796E+01  0.2830545E-03  0.1253274E+01  0.1279903E+06 -0.1570796E+01  0.7369092E+00 -0.4626619E-02  0.1489336E+06 -0.5245628E-07  0.1211572E+02 -0.3141129E+01  0.9247411E+06 -0.1570792E+01  0.1525879E-04 -0.1570796E+01
  0.4600000E+00  0.1484959E+06 -0.1570796E+01  0.7254772E-01  0.3099370E+01  0.2634800E+07 -0.3880138E-08  0.2124606E+01  0.3140087E+01  0.1470619E+07 -0.1570796E+01  0.3364273E-03 -0.1753708E+01  0.1363246E+06 -0.1570794E+01  0.4264719E+00  0.3139283E+01  0.1405782E+06 -0.1736689E-07  0.1962902E+01 -0.3420385E-02  0.1004102E+07 -0.1570794E+01  0.5722046E-04  0.1570796E+01
  0.4800000E+00  0.1611148E+06 -0.1570796E+01  0.5100136E+00  0.2477617E-03  0.2618905E+07  0.5680740E-08  0.8045626E+01  0.3140831E+01  0.1592841E+07 -0.1570796E+01  0.3217445E-03  0.1466581E+01  0.1445259E+06 -0.1570799E+01  0.6927079E+00  0.3666939E-02  0.1323482E+06 -0.2102940E-06  0.3874580E+01 -0.3135670E+01  0.1085706E+07 -0.1570795E+01  0.5722046E-04 -0.1570796E+01
  0.5000000E+00  0.1741561E+06 -0.1570796E+01  0.7114029E-01  0.2882192E-03  0.2602156E+07 -0.1102413E-08  0.1135738E+02  0.1085055E-02  0.1718734E+07 -0.1570797E+01  0.3878087E-03  0.1396555E+01  0.1525602E+06 -0.1570798E+01  0.3209999E+00 -0.3133975E+01  0.1242876E+06 -0.9841245E-06  0.6341905E+01 -0.3135760E+01  0.1169373E+07 -0.1570797E+01  0.1907349E-04 -0.1570796E+01
  0.5200000E+00  0.1876016E+06 -0.1570796E+01  0.6090568E+00 -0.4476699E-02  0.2584537E+07 -0.9245473E-08  0.1647018E+01  0.1216690E-01  0.1848100E+07 -0.1570796E+01  0.4283414E-03 -0.1763318E+01  0.1603968E+06 -0.1570797E+01  0.5471600E+00  0.3139076E+01  0.1164151E+06  0.1929384E-06  0.3265429E+01 -0.3119722E+01  0.1254916E+07 -0.1570795E+01  0.1907349E-04  0.1570796E+01
  0.5400000E+00  0.2014320E+06 -0.1570797E+01  0.1678853E+00  0.2269367E-02  0.2566025E+07  0.7373622E-09  0.8309100E+01 -0.3140815E+01  0.1980717E+07 -0.1570796E+01  0.4239535E-03 -0.1246230E+01  0.1680079E+06 -0.1570794E+01  0.3556140E+00 -0.3138923E+01  0.1087677E+06 -0.4646334E-06  0.4188969E+01  0.1369623E-02  0.1342142E+07 -0.1570792E+01  0.7629395E-05 -0.1570796E+01
  0.5600000E+00  0.2156268E+06 -0.1570796E+01  0.2234443E-01  0.3107228E+01  0.2546604E+07  0.2995910E-09  0.6439799E+01  0.4176910E-02  0.2116368E+07 -0.1570796E+01  0.9044034E-03 -0.1824891E+01  0.1753692E+06 -0.1570796E+01  0.2620931E+00  0.5760070E-02  0.1013682E+06  0.8574095E-06  0.6001921E+01 -0.1232547E-01  0.1430853E+07 -0.1570796E+01  0.2670288E-04  0.1570796E+01
  0.5800000E+00  0.2301631E+06 -0.1570796E+01  0.4492486E+00  0.3748911E-02  0.2526260E+07 -0.1328815E-08  0.6231018E+00 -0.3101329E+01  0.2254813E+07 -0.1570796E+01  0.2383385E-03  0.1080911E+01  0.1824605E+06 -0.1570796E+01  0.4332773E+00 -0.9442598E-03  0.9423159E+05  0.1010434E-06  0.2893869E+01  0.3257057E-01  0.1520844E+07 -0.1570795E+01  0.2670288E-04 -0.1570796E+01
  0.6000000E+00  0.2450177E+06 -0.1570796E+01  0.1438115E+00  0.8405420E-02  0.2504970E+07  0.1042849E-07  0.9545332E+01 -0.3139498E+01  0.2395803E+07 -0.1570796E+01  0.4350468E-03  0.1073239E+01  0.1892634E+06 -0.1570797E+01  0.1819426E+00 -0.3132650E+01  0.8737271E+05  0.6147336E-07  0.7978271E+01 -0.3141394E+01  0.1611906E+07 -0.1570797E+01  0.1945122E-04  0.1768192E+01
  0.6199999E+00  0.2601649E+06 -0.1570796E+01  0.8618329E-01  0.3135401E+01  0.2482722E+07 -0.1892966E-08  0.5107342E+01  0.3140300E+01  0.2539079E+07 -0.1570796E+01  0.6277486E-04  0.3417858E+00  0.1957644E+06 -0.1570797E+01  0.2322026E+00 -0.3140767E+01  0.8081409E+05 -0.5045096E-06  0.9965404E+00  0.4864934E-01  0.1703831E+07 -0.1570796E+01  0.5394797E-05 -0.2356194E+01
  0.6400000E+00  0.2755771E+06 -0.1570796E+01  0.1766493E+00 -0.4872335E-02  0.2459500E+07  0.8685628E-10  0.2048929E+01  0.3140112E+01  0.2684379E+07 -0.1570796E+01  0.8808119E-03  0.1533486E+01  0.2019528E+06 -0.1570797E+01  0.4019290E+00 -0.5018353E-03  0.7456006E+05 -0.3536369E-06  0.7185067E+01 -0.1512061E-02  0.1796412E+07 -0.1570796E+01  0.7287969E-04  0.1675673E+01
  0.6600000E+00  0.2912253E+06 -0.1570796E+01  0.1588886E+00 -0.5798115E-02  0.2435291E+07 -0.1206773E-07  0.6222786E+01  0.1568261E-02  0.2831426E+07 -0.1570796E+01  0.2049787E-03 -0.2168645E+01  0.2078211E+06 -0.1570797E+01  0.2170920E+00 -0.2196475E-04  0.6861866E+05  0.1067380E-06  0.8598636E+01  0.8801815E-03  0.1889431E+07 -0.1570797E+01  0.5340576E-04 -0.1570796E+01
  0.6799999E+00  0.3070787E+06 -0.1570796E+01  0.4691097E+00 -0.2173220E-02  0.2410083E+07 -0.3216265E-08  0.3058882E+01 -0.3135744E+01  0.2979916E+07 -0.1570796E+01  0.7319282E-03 -0.1765160E+01  0.2133636E+06 -0.1570796E+01  0.3961117E+00  0.9943346E-03  0.6299659E+05 -0.5968205E-06  0.1149316E+02  0.3141455E+01  0.1982672E+07 -0.1570796E+01  0.5722046E-04 -0.1570796E+01
  0.7000000E+00  0.3231052E+06 -0.1570796E+01  0.3411525E+00 -0.1424329E-01  0.2383860E+07 -0.7130573E-08  0.1315478E+01  0.1043677E-01  0.3129559E+07 -0.1570796E+01  0.1888376E-02  0.1546228E+01  0.2185791E+06 -0.1570796E+01  0.2438128E-01  0.8162589E-01  0.5769604E+05 -0.1269449E-07  0.6076286E+01 -0.6127374E-02  0.2075942E+07 -0.1570798E+01  0.1907349E-04  0.1570796E+01
  0.7199999E+00  0.3392698E+06 -0.1570796E+01  0.1268892E+00 -0.3125643E+01  0.2356613E+07  0.1424474E-08  0.4543046E+01  0.7036505E-03  0.3280049E+07 -0.1570796E+01  0.5882151E-03 -0.1271789E+01  0.2234673E+06 -0.1570797E+01  0.8676867E-01 -0.3116107E+01  0.5270979E+05  0.5650782E-06  0.3130015E+01  0.2495997E-02  0.2169019E+07 -0.1570798E+01  0.1916862E-04  0.1471128E+01
  0.7399999E+00  0.3555367E+06 -0.1570796E+01  0.2426791E+00  0.1104682E-01  0.2328331E+07 -0.2857339E-08  0.3003100E+01  0.1326145E-02  0.3431050E+07 -0.1570796E+01  0.3804945E-03 -0.1663972E+01  0.2280319E+06 -0.1570796E+01  0.1133213E+00 -0.3124542E+01  0.4804012E+05  0.1321324E-06  0.4156740E+01  0.3140653E+01  0.2261706E+07 -0.1570797E+01  0.6877043E-05  0.2158799E+01
  0.7599999E+00  0.3718669E+06 -0.1570796E+01  0.2469296E+00 -0.3139835E+01  0.2299008E+07 -0.1316804E-07  0.1633985E+01 -0.4164141E-01  0.3582250E+07 -0.1570796E+01  0.7025766E-03 -0.1395826E+01  0.2322773E+06 -0.1570796E+01  0.7459059E-01  0.3128548E+01  0.4368140E+05  0.1352567E-05  0.1371364E+02  0.3140151E+01  0.2353802E+07 -0.1570797E+01  0.2106735E-04 -0.1480136E+01
  0.7800000E+00  0.3882216E+06 -0.1570796E+01  0.1280691E-01  0.4417331E+00  0.2268636E+07  0.1611543E-07  0.3496004E+00  0.1189548E+00  0.3733302E+07 -0.1570796E+01  0.8552895E-04  0.6801394E+00  0.2362111E+06 -0.1570796E+01  0.1986882E+00 -0.3136987E+01  0.3962367E+05 -0.1447949E-06  0.6590110E+01  0.3138999E+01  0.2445126E+07 -0.1570797E+01  0.7629395E-05  0.1570796E+01
  0.8000000E+00  0.4045570E+06 -0.1570796E+01  0.1192901E+00 -0.1427081E-01  0.2237218E+07  0.2728172E-10  0.1869897E+01  0.3116508E+01  0.3883845E+07 -0.1570796E+01  0.8410258E-03 -0.1740142E+01  0.2398404E+06 -0.1570796E+01  0.3950834E-02  0.2642800E+01  0.3585991E+05  0.8135773E-06  0.6662461E+01  0.3137873E+01  0.2535490E+07 -0.1570796E+01  0.3242493E-04  0.1570796E+01
  0.8200000E+00  0.4208318E+06 -0.1570796E+01  0.1050360E+00 -0.6328455E-02  0.2204738E+07 -0.9633904E-08  0.6241324E+01 -0.3133952E+01  0.4033539E+07 -0.1570796E+01  0.2000483E-02 -0.1532081E+01  0.2431757E+06 -0.1570796E+01  0.2352107E+00 -0.2471253E-02  0.3237940E+05 -0.4674799E-06  0.3611975E+01  0.3129122E+01  0.2624707E+07 -0.1570796E+01  0.3623962E-04 -0.1570796E+01
  0.8399999E+00  0.4369979E+06 -0.1570796E+01  0.1276371E+00  0.3110385E+01  0.2171207E+07  0.3317117E-08  0.5162973E+01  0.3132464E+01  0.4182010E+07 -0.1570796E+01  0.1506951E-03  0.2296131E+01  0.2462278E+06 -0.1570797E+01  0.1224499E+00 -0.3138337E+01  0.2917038E+05  0.3766262E-07  0.6749762E+01  0.3140254E+01  0.2712624E+07 -0.1570797E+01  0.3057712E-04 -0.1633215E+01
  0.8600000E+00  0.4530087E+06 -0.1570796E+01  0.6496586E+00  0.1053997E-02  0.2136622E+07  0.3313679E-08  0.2279594E+01 -0.3120263E+01  0.4328890E+07 -0.1570796E+01  0.1270726E-02 -0.1596865E+01  0.2490083E+06 -0.1570796E+01  0.4669090E+00  0.3529494E-02  0.2622113E+05  0.1233686E-05  0.6732574E+01  0.3137368E+01  0.2799080E+07 -0.1570796E+01  0.0000000E+00  0.0000000E+00
  0.8799999E+00  0.4688153E+06 -0.1570796E+01  0.4984627E+00  0.3141472E+01  0.2100988E+07 -0.1074876E-08  0.2351094E+01  0.3124787E+01  0.4473798E+07 -0.1570796E+01  0.1389499E-02  0.1524415E+01  0.2515295E+06 -0.1570797E+01  0.2595963E+00  0.7952686E-02  0.2351888E+05 -0.4826990E-06  0.1137518E+01 -0.7994893E-02  0.2883940E+07 -0.1570796E+01  0.7629395E-05  0.1570796E+01
  0.9000000E+00  0.4843657E+06 -0.1570796E+01  0.1410228E+00  0.3116880E+01  0.2064312E+07  0.1386684E-07  0.2711535E+00 -0.7375716E-01  0.4616353E+07 -0.1570796E+01  0.1219675E-02  0.1587996E+01  0.2538047E+06 -0.1570796E+01  0.3635222E-02  0.1826869E+00  0.2105010E+05  0.6378941E-07  0.2003120E+01 -0.9933398E-02  0.2967049E+07 -0.1570796E+01  0.2861420E-04 -0.1587461E+01
  0.9200000E+00  0.4996086E+06 -0.1570796E+01  0.7928560E-02 -0.8330460E+00  0.2026606E+07 -0.1304063E-07  0.1195948E+02  0.1124843E-02  0.4756162E+07 -0.1570796E+01  0.9851928E-03 -0.1523753E+01  0.2558466E+06 -0.1570796E+01  0.8253292E-01 -0.3123702E+01  0.1880016E+05  0.8635753E-06  0.2526155E+01  0.8939679E-03  0.3048284E+07 -0.1570796E+01  0.1148376E-04  0.1653938E+01
  0.9400000E+00  0.5144875E+06 -0.1570796E+01  0.3665602E+00  0.7279581E-02  0.1987876E+07 -0.6846927E-08  0.1476032E+01  0.9892057E-02  0.4892838E+07 -0.1570796E+01  0.5012794E-03 -0.1403847E+01  0.2576687E+06 -0.1570796E+01  0.1243048E+00  0.3258715E-02  0.1675699E+05 -0.2986743E-06  0.7958518E+01 -0.5330092E-02  0.3127551E+07 -0.1570796E+01  0.5727011E-05 -0.1529154E+01
  0.9599999E+00  0.5289504E+06 -0.1570796E+01  0.4853420E+00  0.2811851E-02  0.1948144E+07 -0.3205049E-07  0.2958069E+01  0.3125219E+01  0.5025973E+07 -0.1570796E+01  0.1497200E-02  0.1551521E+01  0.2592843E+06 -0.1570796E+01  0.2037961E+00 -0.3133827E+01  0.1490574E+05  0.9909274E-06  0.1256803E+02 -0.3140466E+01  0.3204739E+07 -0.1570796E+01  0.6397442E-05 -0.2034444E+01
  0.9799999E+00  0.5429359E+06 -0.1570796E+01  0.5517728E+00  0.3134231E+01  0.1907428E+07  0.1670331E-07  0.1751011E+01  0.3131144E+01  0.5155169E+07 -0.1570796E+01  0.1679889E-03  0.1722977E+01  0.2607066E+06 -0.1570797E+01  0.5520018E-01 -0.3140200E+01  0.1323258E+05  0.4427990E-06  0.8889160E+01 -0.3137892E+01  0.3279747E+07 -0.1570796E+01  0.2194617E-04 -0.1538199E+01
  0.9999999E+00  0.5563904E+06 -0.1570796E+01  0.4591147E+00  0.3127380E+01  0.1865744E+07 -0.1638950E-07  0.2014186E+01  0.3137304E+01  0.5280038E+07 -0.1570796E+01  0.1040807E-02  0.1676814E+01  0.2619477E+06 -0.1570797E+01  0.1826760E+00 -0.3106868E+01  0.1172483E+05 -0.4216562E-06  0.3524842E+01  0.3341939E-02  0.3352526E+07 -0.1570797E+01  0.4915125E-05  0.1325818E+01
  0.1020000E+01  0.5692512E+06 -0.1570796E+01  0.2891991E+00  0.3134694E+01  0.1823118E+07 -0.5289594E-08  0.1072315E+01  0.3115864E+01  0.5400179E+07 -0.1570796E+01  0.1756585E-02  0.1499137E+01  0.2630203E+06 -0.1570796E+01  0.1146407E+00 -0.3135320E+01  0.1036930E+05 -0.4120297E-07  0.8996624E+01  0.6614624E-03  0.3422980E+07 -0.1570797E+01  0.8623538E-05 -0.1473879E+01
  0.1040000E+01  0.5814591E+06 -0.1570796E+01  0.1289866E+00 -0.3139478E+01  0.1779581E+07  0.4105408E-07  0.2511728E+01  0.1863468E-01  0.5515192E+07 -0.1570796E+01  0.1111977E-02  0.1395481E+01  0.2639359E+06 -0.1570796E+01  0.1898743E+00  0.4739526E-02  0.9153821E+04  0.3400539E-06  0.6356843E+01  0.3136422E+01  0.3491064E+07 -0.1570797E+01  0.3860983E-05 -0.1725793E+01
  0.1060000E+01  0.5929560E+06 -0.1570796E+01  0.1365899E+00 -0.1537502E-01  0.1735162E+07 -0.9145625E-09  0.2229120E+01 -0.2095985E-01  0.5624674E+07 -0.1570796E+01  0.7273809E-03 -0.1482812E+01  0.2647064E+06 -0.1570796E+01  0.1284264E+00 -0.3133916E+01  0.8066315E+04 -0.1937068E-05  0.4341331E+01  0.4175561E-02  0.3556751E+07 -0.1570796E+01  0.6203466E-05  0.1609239E+01
  0.1080000E+01  0.6036781E+06 -0.1570796E+01  0.4618107E-01  0.1342340E-01  0.1689894E+07 -0.1701145E-07  0.1995001E+01 -0.5340600E-02  0.5728244E+07 -0.1570796E+01  0.3857817E-03 -0.1424910E+01  0.2653426E+06 -0.1570796E+01  0.2039454E-01  0.3008114E+01  0.7095724E+04  0.1161227E-06  0.1564027E+02 -0.3141402E+01  0.3619992E+07 -0.1570796E+01  0.5250624E-05  0.1616220E+01
  0.1100000E+01  0.6135642E+06 -0.1570796E+01  0.3311173E-01  0.2904885E+01  0.1643817E+07  0.3527364E-08  0.9653696E+00 -0.2024513E-01  0.5825522E+07 -0.1570796E+01  0.2011451E-03  0.3944018E+00  0.2658535E+06 -0.1570796E+01  0.5791609E-02 -0.2622060E+01  0.6231232E+04  0.2972794E-05  0.5936917E+01 -0.3140421E+01  0.3680742E+07 -0.1570796E+01  0.6675720E-05 -0.1570796E+01
  0.1120000E+01  0.6225556E+06 -0.1570796E+01  0.1632312E+00  0.3557650E-01  0.1596969E+07 -0.1987407E-07  0.2504247E+01 -0.3217196E-02  0.5916136E+07 -0.1570796E+01  0.4552091E-03  0.1853654E+01  0.2662486E+06 -0.1570796E+01  0.2021118E+00  0.3141085E+01  0.5462936E+04  0.1742924E-05  0.1311037E+02  0.6401293E-03  0.3739035E+07 -0.1570796E+01  0.1001358E-04 -0.1570796E+01
  0.1140000E+01  0.6305897E+06 -0.1570796E+01  0.1086219E+00 -0.3107468E+01  0.1549400E+07 -0.1390564E-07  0.2708199E+01  0.3141590E+01  0.5999700E+07 -0.1570796E+01  0.2364793E-03 -0.1955414E+01  0.2665376E+06 -0.1570796E+01  0.9203819E-01 -0.3113000E+01  0.4781463E+04 -0.1295643E-05  0.3371085E+01 -0.2892357E-02  0.3794826E+07 -0.1570797E+01  0.9830250E-06 -0.1815775E+01
  0.1160000E+01  0.6376066E+06 -0.1570796E+01  0.4467802E+00  0.3603126E-02  0.1501157E+07 -0.1175038E-07  0.2391317E+01  0.3122581E+01  0.6075888E+07 -0.1570796E+01  0.7697833E-03  0.1427531E+01  0.2667274E+06 -0.1570797E+01  0.4152033E-01  0.1609973E-02  0.4178417E+04 -0.2410195E-06  0.1344111E+02 -0.5006377E-03  0.3848131E+07 -0.1570796E+01  0.1673182E-05 -0.1642104E+01
  0.1180000E+01  0.6435474E+06 -0.1570796E+01  0.8024053E-01  0.8863694E-01  0.1452290E+07  0.1063279E-07  0.3952468E+01  0.3129183E+01  0.6144326E+07 -0.1570796E+01  0.1770722E-02  0.1469556E+01  0.2668263E+06 -0.1570796E+01  0.2113899E+00 -0.1059166E-01  0.3645531E+04 -0.2034209E-05  0.7455494E+01 -0.1099051E-02  0.3898954E+07 -0.1570796E+01  0.7633119E-06  0.2466852E+01
  0.1200000E+01  0.6483532E+06 -0.1570796E+01  0.1206535E+00 -0.3115711E+01  0.1402854E+07  0.5612514E-08  0.3403590E+01  0.3140311E+01  0.6204710E+07 -0.1570796E+01  0.7311841E-03 -0.1607084E+01  0.2668398E+06 -0.1570796E+01  0.1788013E+00 -0.1207014E-01  0.3175591E+04 -0.9225645E-06  0.3555215E+01 -0.4188952E-02  0.3947313E+07 -0.1570796E+01  0.2158972E-05  0.1460139E+01
  0.1220000E+01  0.6519686E+06 -0.1570796E+01  0.2685891E+00  0.9231772E-03  0.1352908E+07  0.4917430E-08  0.2259588E+01 -0.3105891E+01  0.6256715E+07 -0.1570796E+01  0.2530552E-02  0.1565968E+01  0.2667748E+06 -0.1570797E+01  0.3280411E-01 -0.4479007E-01  0.2762000E+04  0.1259596E-05  0.1036469E+02 -0.9613396E-03  0.3993217E+07 -0.1570796E+01  0.1359195E-05 -0.1837048E+01
  0.1240000E+01  0.6543399E+06 -0.1570796E+01  0.1227369E+00  0.3131165E+01  0.1302519E+07  0.6185430E-08  0.4488539E+01  0.6594228E-02  0.6300054E+07 -0.1570796E+01  0.3185166E-03  0.1742200E+01  0.2666360E+06 -0.1570796E+01  0.1246619E+00  0.3481265E-01  0.2398457E+04  0.1914937E-05  0.2262492E+01 -0.3061889E-02  0.4036710E+07 -0.1570796E+01  0.7152557E-06  0.1570796E+01
  0.1260000E+01  0.6554136E+06 -0.1570796E+01  0.1445925E+00 -0.3105969E+01  0.1251746E+07  0.3305929E-07  0.3125366E+01  0.2575382E-03  0.6334450E+07 -0.1570796E+01  0.2405109E-03 -0.1553629E+01  0.2664295E+06 -0.1570796E+01  0.2715187E-01 -0.3135025E+01  0.2079539E+04 -0.1834396E-05  0.1600316E+01  0.3140734E+01  0.4077822E+07 -0.1570796E+01  0.2149076E-05 -0.1515298E+01
  0.1280000E+01  0.6551404E+06 -0.1570796E+01  0.3769915E-01  0.1080257E+00  0.1200660E+07 -0.2160473E-07  0.3320793E+01 -0.4298564E-02  0.6359655E+07 -0.1570796E+01  0.1410082E-03  0.1878574E+01  0.2661585E+06 -0.1570796E+01  0.6124859E-01  0.3108360E+01  0.1800149E+04 -0.4640831E-05  0.4647933E+01  0.1782626E-02  0.4116573E+07 -0.1570796E+01  0.3371748E-06 -0.2356194E+01
  0.1300000E+01  0.6534757E+06 -0.1570796E+01  0.1631131E+00 -0.2382173E-01  0.1149332E+07  0.1789635E-07  0.2482309E+01 -0.3119809E+01  0.6375430E+07 -0.1570796E+01  0.7773673E-03  0.1738222E+01  0.2658270E+06 -0.1570796E+01  0.1372002E+00 -0.3125354E+01  0.1555819E+04  0.1696708E-05  0.1330444E+02 -0.3140291E+01  0.4153008E+07 -0.1570796E+01  0.7539458E-06  0.1892547E+01
  0.1320000E+01  0.6503744E+06 -0.1570796E+01  0.6937855E-01 -0.3120175E+01  0.1097839E+07 -0.4086287E-07  0.5779542E-01  0.1983445E+01  0.6381578E+07 -0.1570796E+01  0.2296549E-02  0.1557023E+01  0.2654385E+06 -0.1570796E+01  0.6891241E-01  0.9427373E-02  0.1342424E+04 -0.1204859E-05  0.6303916E+01 -0.3140709E+01  0.4187142E+07 -0.1570796E+01  0.5057622E-06  0.7853982E+00
  0.1340000E+01  0.6458002E+06 -0.1570796E+01  0.4536200E+00  0.3133633E+01  0.1046256E+07 -0.5699501E-07  0.1233096E+01 -0.2205733E-02  0.6377934E+07 -0.1570796E+01  0.5046704E-03  0.1873517E+01  0.2649964E+06 -0.1570796E+01  0.4860124E-01  0.7518954E-01  0.1156383E+04  0.1741776E-05  0.4006398E+01 -0.1236400E-01  0.4219042E+07 -0.1570796E+01  0.1788139E-06 -0.1570796E+01
  0.1360000E+01  0.6397179E+06 -0.1570796E+01  0.1282065E+00  0.3042849E-01  0.9946621E+06 -0.6013545E-08  0.1829144E+01  0.3139532E+01  0.6364334E+07 -0.1570796E+01  0.3379403E-02  0.1578888E+01  0.2645027E+06 -0.1570796E+01  0.9042379E-01  0.1047687E-01  0.9943828E+03 -0.2313256E-05  0.2948493E+01  0.3133435E+01  0.4248756E+07 -0.1570796E+01  0.2149076E-06 -0.5880026E+00
  0.1380000E+01  0.6320984E+06 -0.1570796E+01  0.7023382E-01 -0.3135211E+01  0.9431414E+06 -0.3332809E-07  0.1725780E+01 -0.3131130E+01  0.6340662E+07 -0.1570796E+01  0.4955981E-03 -0.1027919E+01  0.2639599E+06 -0.1570796E+01  0.7995599E-02 -0.1351857E+00  0.8535630E+03  0.4670257E-05  0.2676234E+01 -0.3131629E+01  0.4276288E+07 -0.1570796E+01  0.2026777E-06 -0.1272297E+01
  0.1400000E+01  0.6229159E+06 -0.1570796E+01  0.1311574E+00 -0.3122715E+01  0.8917779E+06 -0.1026632E-07  0.1312958E+01  0.3125252E+01  0.6306833E+07 -0.1570796E+01  0.4982695E-03 -0.1182876E+01  0.2633691E+06 -0.1570796E+01  0.2142776E-01 -0.4097376E-01  0.7313342E+03  0.1682186E-06  0.1269096E+01 -0.3692498E-01  0.4301718E+07 -0.1570796E+01  0.3931902E-06  0.1098674E+01
  0.1420000E+01  0.6121529E+06 -0.1570796E+01  0.1106382E+00 -0.6654500E-02  0.8406566E+06 -0.7863029E-07  0.2297122E+01 -0.1716856E-01  0.6262818E+07 -0.1570796E+01  0.2873130E-02  0.1592441E+01  0.2627324E+06 -0.1570796E+01  0.3213023E-01  0.1125518E+00  0.6254037E+03  0.1713218E-05  0.1893203E+01 -0.3072567E-01  0.4325078E+07 -0.1570796E+01  0.1862645E-07 -0.1570796E+01
  0.1440000E+01  0.5997981E+06 -0.1570796E+01  0.6020947E-01  0.1202882E+00  0.7898645E+06  0.7982295E-07  0.2053330E+01 -0.4960344E-01  0.6208578E+07 -0.1570796E+01  0.8861150E-03  0.1282724E+01  0.2620516E+06 -0.1570796E+01  0.1139922E+00 -0.2001096E-01  0.5337515E+03 -0.8111793E-06  0.1884542E+01  0.3662806E-02  0.4346382E+07 -0.1570796E+01  0.0000000E+00  0.0000000E+00
  0.1460000E+01  0.5858431E+06 -0.1570796E+01  0.5757323E-02  0.2690835E+01  0.7394920E+06  0.1279317E-07  0.3665155E+01 -0.2911845E-01  0.6144134E+07 -0.1570796E+01  0.7649728E-03  0.1569374E+01  0.2613265E+06 -0.1570796E+01  0.4211874E-01  0.3078876E+01  0.4545807E+03  0.2165317E-05  0.9409665E-01 -0.7767329E-01  0.4365730E+07 -0.1570796E+01  0.6143906E-07  0.2449787E+00
  0.1480000E+01  0.5702905E+06 -0.1570796E+01  0.1831210E-01 -0.2907073E+01  0.6896269E+06  0.2743643E-08  0.1076341E+01 -0.3050910E-01  0.6069557E+07 -0.1570796E+01  0.1064963E-02  0.1518566E+01  0.2605594E+06 -0.1570796E+01  0.6137559E-01 -0.3140468E+01  0.3863134E+03 -0.1463603E-05  0.1108845E+01 -0.3117501E+01  0.4383080E+07 -0.1570796E+01  0.0000000E+00  0.0000000E+00
  0.1500000E+01  0.5531469E+06 -0.1570796E+01  0.9182714E-01  0.3108810E+01  0.6403607E+06 -0.1839555E-07  0.2203105E+00  0.3062606E+01  0.5984931E+07 -0.1570796E+01  0.1502892E-02  0.1588930E+01  0.2597500E+06 -0.1570796E+01  0.8005265E-01 -0.8102618E-02  0.3275553E+03  0.1802213E-05  0.2820003E+00 -0.3125190E+01  0.4398540E+07 -0.1570796E+01  0.4214685E-07 -0.7853982E+00
  0.1520000E+01  0.5344282E+06 -0.1570796E+01  0.5429264E-01  0.5806886E-01  0.5917821E+06  0.8766720E-08  0.7489097E+00 -0.3127615E+01  0.5890398E+07 -0.1570796E+01  0.2937733E-02  0.1712639E+01  0.2588992E+06 -0.1570796E+01  0.2025299E-01  0.1206348E-01  0.2770781E+03  0.8690792E-07  0.2665097E+01  0.3138282E+01  0.4412122E+07 -0.1570796E+01  0.7337971E-07 -0.1152572E+01
  0.1540000E+01  0.5141587E+06 -0.1570796E+01  0.7382861E-02 -0.2626493E+00  0.5439838E+06 -0.2143026E-07  0.1334206E+00 -0.2891004E+01  0.5786118E+07 -0.1570796E+01  0.1259496E-03 -0.1897746E+01  0.2580079E+06 -0.1570796E+01  0.9789214E-01 -0.3134032E+01  0.2338040E+03 -0.1631579E-07  0.4754808E+01 -0.1512302E-03  0.4423854E+07 -0.1570796E+01  0.4470348E-07 -0.1570796E+01
  0.1560000E+01  0.4923679E+06 -0.1570796E+01  0.1318197E-01 -0.1634795E+01  0.4970530E+06  0.1817352E-07  0.3013859E+01 -0.3119550E+01  0.5672338E+07 -0.1570796E+01  0.1319505E-02 -0.1362146E+01  0.2570749E+06 -0.1570796E+01  0.1029730E+00  0.6892119E-02  0.1967829E+03 -0.1342433E-05  0.6469544E+00 -0.5814392E-01  0.4433784E+07 -0.1570796E+01  0.1273156E-06 -0.1212026E+01