VARIABLES="w (rad/s)"
"A   1   1" "B   1   1"
"A   1   2" "B   1   2"
"A   1   3" "B   1   3"
"A   1   4" "B   1   4"
"A   1   5" "B   1   5"
"A   1   6" "B   1   6"
"A   2   1" "B   2   1"
"A   2   2" "B   2   2"
"A   2   3" "B   2   3"
"A   2   4" "B   2   4"
"A   2   5" "B   2   5"
"A   2   6" "B   2   6"
Zone t="Motion of body    1 in DoF   1",I=   260,F=POINT
  0.2000000E-01  0.2311903E+06  0.2624068E-06 -0.2365361E-02 -0.1552647E-12  0.1013064E+01  0.1696461E-04 -0.1862999E-01 -0.1364225E-10  0.1373558E+07  0.1687590E-05 -0.1175513E-03  0.9850616E-15  0.4194552E+05  0.1691825E-06  0.1589884E-03  0.1257996E-10 -0.6913364E+00  0.2914708E-05  0.8851290E-03  0.9549694E-11  0.1480478E+06 -0.2437606E-04 -0.1210719E-05 -0.2220446E-15
  0.4000000E-01  0.2312871E+06  0.5392500E-04 -0.4377798E-03 -0.1112621E-10  0.1082385E+01  0.1522497E-03  0.5941023E-02  0.7173906E-10  0.1374424E+07  0.3278951E-03  0.1552605E-03 -0.5707491E-13  0.4197795E+05  0.9965061E-04  0.9327196E-04  0.3626588E-10 -0.6939709E+00  0.1995928E-03 -0.5930662E-03  0.1006811E-08  0.1483815E+06  0.8372521E-03  0.1117587E-05 -0.1776357E-14
  0.6000000E-01  0.2310319E+06  0.7274999E-03 -0.1813378E-02 -0.1021512E-09  0.1123873E+01  0.5138967E-03 -0.2109738E-01 -0.2615792E-09  0.1372110E+07  0.8116145E-02 -0.2006821E-03  0.2231595E-11  0.4162547E+05  0.1395299E-02 -0.7850273E-03  0.1149125E-09 -0.6689390E+00 -0.1147365E-03  0.3441175E-02 -0.6029950E-09  0.1380414E+06  0.6492110E-02  0.6208817E-06 -0.5684342E-13
  0.8000000E-01  0.2316576E+06  0.5823328E-02 -0.1170579E-02 -0.1594174E-09  0.1084387E+01  0.9253742E-03  0.6067916E-02  0.2564605E-08  0.1377277E+07  0.6054974E-01 -0.8875887E-03  0.4853767E-11  0.4279255E+05  0.1075600E-01 -0.2614688E-03 -0.3887521E-09 -0.7141232E+00  0.5887755E-03 -0.2378225E-02 -0.1311128E-07  0.1506095E+06  0.5127904E-01  0.1490116E-05  0.1591616E-11
  0.9999999E-01  0.2318749E+06  0.2747877E-01  0.1190249E-02  0.1539775E-08  0.1122189E+01  0.2282946E-02  0.1484752E-02  0.5757784E-08  0.1378775E+07  0.2879422E+00 -0.8228575E-04 -0.1050930E-09  0.4311930E+05  0.4998079E-01  0.5280786E-03 -0.8711822E-09 -0.8546258E+00 -0.1308051E-03 -0.5521775E-02 -0.6903429E-07  0.1549274E+06  0.2426732E+00  0.0000000E+00  0.1273293E-10
  0.1200000E+00  0.2318253E+06  0.9816993E-01  0.1339894E-02 -0.9845280E-09  0.1267942E+01  0.1140443E-02 -0.4651491E-02  0.2385514E-07  0.1378605E+07  0.1023398E+01 -0.1601901E-03 -0.3480732E-09  0.4269906E+05  0.1781815E+00  0.3903018E-03 -0.2505658E-08 -0.8550644E+00 -0.4400164E-03  0.4335245E-02  0.6903429E-07  0.1447314E+06  0.8574883E+00 -0.7450581E-06  0.4001777E-10
  0.1400000E+00  0.2329567E+06  0.2884555E+00 -0.2883109E-02  0.8495590E-08 -0.8862495E+00 -0.4551579E-01 -0.1065343E-01 -0.7152266E-07  0.1387518E+07  0.3003213E+01 -0.6098608E-03  0.3474100E-09  0.4252887E+05  0.5199750E+00  0.6008361E-04  0.3064360E-07 -0.1414858E+01 -0.3982258E-02 -0.3753390E-02 -0.5685724E-06  0.1382060E+06  0.2480917E+01  0.7450581E-06  0.2182787E-10
  0.1600000E+00  0.2329770E+06  0.7330585E+00  0.4167669E-03  0.4242975E-07  0.2058721E+01  0.3900999E-01  0.1358837E-01 -0.1429944E-06  0.1387410E+07  0.7611725E+01  0.1686827E-03  0.2606438E-08  0.4341352E+05  0.1310212E+01 -0.4207483E-03 -0.1050648E-07 -0.4943192E+00  0.3453240E-02  0.4941225E-02 -0.1020730E-05  0.1536341E+06  0.6181754E+01 -0.9313226E-06 -0.5820766E-10
  0.1800000E+00  0.2337042E+06  0.1665918E+01  0.1725016E-03 -0.2329034E-07  0.1505937E+01  0.1981199E-01  0.8752776E-03 -0.3249734E-06  0.1392337E+07  0.1727968E+02  0.4845993E-03 -0.6760286E-08  0.4287712E+05  0.2951278E+01 -0.6866951E-04 -0.2073648E-08 -0.9387228E+00  0.1393378E-02  0.2532535E-02 -0.1577660E-05  0.1391102E+06  0.1374601E+02  0.8278423E-06 -0.1164153E-09
  0.2000000E+00  0.2342885E+06  0.3473845E+01 -0.1346432E-02 -0.1300941E-07  0.1473389E+01  0.2676108E-01 -0.3782846E-02  0.1946464E-06  0.1395295E+07  0.3592119E+02 -0.3094747E-03 -0.1053753E-07  0.4370788E+05  0.6091413E+01  0.2058037E-03  0.7453491E-07 -0.1062441E+01  0.5487897E-02 -0.1058578E-02 -0.1601875E-06  0.1513736E+06  0.2797214E+02  0.1639128E-05  0.1164153E-08
  0.2200000E+00  0.2357509E+06  0.6748503E+01  0.2640384E-02  0.5096081E-07  0.5864230E-01 -0.1728403E-02  0.2526153E-01 -0.7774797E-06  0.1403732E+07  0.6964238E+02  0.4777960E-03 -0.9288877E-08  0.4357755E+05  0.1169658E+02 -0.2121214E-03 -0.3678724E-07 -0.1407597E+01  0.4699618E-02  0.4300204E-02  0.5498528E-05  0.1412852E+06  0.5288238E+02 -0.1219186E-05  0.2793968E-08
  0.2400000E+00  0.2357217E+06  0.1236242E+02 -0.3096958E-03  0.2654269E-07 -0.1217842E+00 -0.2098842E-01  0.7143307E-02 -0.3783498E-07  0.1405302E+07  0.1271961E+03  0.2067685E-03  0.3838333E-07  0.4440664E+05  0.2116532E+02  0.2328772E-03  0.3062305E-06 -0.1782560E+01  0.6016314E-02 -0.1446406E-02 -0.1569092E-04  0.1529705E+06  0.9423254E+02 -0.3725290E-06  0.6984919E-09
  0.2600000E+00  0.2370715E+06  0.2158038E+02 -0.1255860E-02 -0.5780021E-07 -0.5055061E+00 -0.8894787E-01 -0.6861197E-02  0.4345551E-05  0.1413676E+07  0.2212536E+03  0.1011621E-02 -0.7560130E-09  0.4502016E+05  0.3642481E+02 -0.2423731E-03  0.1920853E-07 -0.1619075E+01  0.5074859E-02 -0.6052164E-02 -0.9715557E-05  0.1579214E+06  0.1595332E+03 -0.5731216E-06  0.7450581E-08
  0.2800000E+00  0.2383039E+06  0.3608708E+02 -0.9081193E-03  0.4016329E-07 -0.1251861E+01 -0.7929601E-01  0.6550896E-02 -0.4926696E-06  0.1421812E+07  0.3689746E+03  0.3343128E-03 -0.7442384E-07  0.4506992E+05  0.6002787E+02 -0.2934997E-04  0.3160676E-06 -0.1033170E+01  0.2587742E-01 -0.1062666E-02 -0.3573298E-04  0.1491158E+06  0.2580569E+03  0.1915864E-05  0.5587935E-08
  0.3000000E+00  0.2387361E+06  0.5822453E+02 -0.1176608E-02 -0.5899929E-06 -0.6351725E+00 -0.1157473E+00 -0.5453874E-02 -0.5019829E-05  0.1426380E+07  0.5928726E+03  0.1742327E-03 -0.1161342E-06  0.4620520E+05  0.9539967E+02  0.2977749E-04  0.4195608E-06 -0.1392924E+01  0.2769792E-01 -0.8074442E-03  0.4494190E-04  0.1639324E+06  0.4035699E+03 -0.1986821E-06  0.5587935E-08
  0.3200000E+00  0.2402747E+06  0.9106050E+02 -0.7587078E-03  0.1189765E-06  0.2543688E+00 -0.8003384E-01 -0.2690597E-02 -0.1699664E-05  0.1435425E+07  0.9238025E+03  0.4187643E-03  0.3435970E-07  0.4713204E+05  0.1467036E+03 -0.5976995E-03 -0.6332994E-07 -0.1055002E+01  0.4083872E-01  0.1317263E-02 -0.1561642E-04  0.1724899E+06  0.6098261E+03  0.9313226E-06 -0.4097819E-07
  0.3400000E+00  0.2420610E+06  0.1385212E+03 -0.2720832E-03  0.3049616E-05  0.3481248E+00 -0.4931514E-01  0.4675239E-02  0.3272668E-05  0.1447407E+07  0.1399115E+04  0.5979910E-03 -0.3393838E-06  0.4772912E+05  0.2192249E+03  0.5982378E-04 -0.1036096E-05 -0.1237645E+01  0.4675508E-01  0.1548318E-02  0.4649162E-05  0.1718970E+06  0.8953301E+03  0.8765389E-06 -0.7450581E-08
  0.3600000E+00  0.2430438E+06  0.2052897E+03  0.1030741E-02  0.2887100E-07  0.5226983E+00 -0.1804773E+00 -0.3500722E-02 -0.1590699E-04  0.1455651E+07  0.2064872E+04 -0.6636693E-03  0.2604219E-06  0.4833473E+05  0.3192487E+03 -0.3549374E-04  0.2687331E-05 -0.1046573E+01  0.5769825E-01 -0.2532535E-02  0.7629395E-05  0.1721362E+06  0.1280592E+04 -0.2152390E-05 -0.3352761E-07
  0.3800000E+00  0.2441634E+06  0.2980642E+03  0.2456865E-02  0.3333203E-05  0.8235931E+00 -0.1533621E+00  0.6385223E-02  0.2364255E-04  0.1465170E+07  0.2984901E+04 -0.3266406E-03 -0.2059171E-06  0.4967930E+05  0.4545961E+03  0.1975972E-03 -0.1414772E-04 -0.6398854E+00  0.9320164E-01  0.2158316E-03  0.2312660E-04  0.1848614E+06  0.1795710E+04 -0.3764504E-05  0.9685755E-07
  0.4000000E+00  0.2460913E+06  0.4240872E+03  0.8326489E-03  0.4997477E-05 -0.4491234E+00 -0.2568991E+00 -0.1065332E-01 -0.2376363E-04  0.1478074E+07  0.4225222E+04 -0.5049537E-04 -0.2352277E-06  0.5089713E+05  0.6338546E+03  0.2719648E-03  0.4751608E-05 -0.3122520E+00  0.1167040E+00 -0.4434586E-02  0.3719330E-04  0.1963346E+06  0.2467023E+04 -0.1639128E-05 -0.1490116E-07
  0.4200000E+00  0.2482266E+06  0.5923901E+03  0.2693101E-02  0.5217269E-05 -0.9278798E+00 -0.3144898E+00  0.2076307E-01  0.1344830E-04  0.1492677E+07  0.5873516E+04 -0.3666128E-03 -0.1031994E-05  0.5197573E+05  0.8671971E+03  0.4010896E-04 -0.5217269E-05 -0.3477732E-01  0.1147556E+00  0.2161662E-02 -0.3957748E-04  0.2021331E+06  0.3327345E+04  0.1986822E-05  0.1192093E-06
  0.4400000E+00  0.2504236E+06  0.8144725E+03  0.1072308E-02  0.6608665E-05 -0.2287032E+01 -0.4740613E+00  0.5653721E-02 -0.2567470E-04  0.1507930E+07  0.8034869E+04 -0.3855259E-04  0.3203200E-05  0.5262483E+05  0.1166093E+04 -0.1038679E-03 -0.1077354E-04  0.4617518E+00  0.1170006E+00 -0.2444874E-02  0.2131462E-03  0.1965135E+06  0.4413699E+04  0.3522093E-05 -0.1043081E-06
  0.4600000E+00  0.2517678E+06  0.1101932E+04 -0.4927425E-03  0.2011657E-06 -0.3886530E+01 -0.8722070E+00  0.6566715E-02  0.1942813E-03  0.1520642E+07  0.1081353E+05 -0.2880763E-03 -0.3001901E-05  0.5408623E+05  0.1543687E+04 -0.6314205E-03  0.8217990E-05  0.7196841E+00  0.4094124E-01  0.3532741E-02 -0.9059906E-04  0.2108874E+06  0.5791890E+04 -0.3109807E-05  0.2086163E-06
  0.4800000E+00  0.2539615E+06  0.1470715E+04 -0.1488067E-02  0.4313886E-05 -0.4132398E+01 -0.1081985E+01  0.8668937E-02 -0.1583993E-04  0.1534846E+07  0.1434364E+05  0.3150590E-03 -0.5228264E-06  0.5567716E+05  0.2014174E+04  0.1810025E-02  0.7413328E-05  0.9342353E+00 -0.5227280E-01 -0.7311503E-02  0.1764297E-03  0.2256530E+06  0.7507152E+04  0.1738469E-05 -0.2980232E-06
  0.5000000E+00  0.2564763E+06  0.1939468E+04  0.1832247E-03 -0.9819865E-05 -0.4889084E+01 -0.1340400E+01 -0.5813420E-02  0.1356006E-04  0.1553043E+07  0.1881396E+05 -0.6635309E-05 -0.5369778E-05  0.5719470E+05  0.2592216E+04 -0.2464652E-03 -0.2506375E-04  0.1108154E+01 -0.9264755E-01 -0.6332397E-03 -0.5989075E-03  0.2365155E+06  0.9611658E+04 -0.1668930E-05 -0.5960464E-07
  0.5200000E+00  0.2591960E+06  0.2526148E+04  0.2907217E-02  0.1285970E-04 -0.3501349E+01 -0.8686705E+00  0.9109768E-03  0.1511425E-03  0.1572670E+07  0.2434833E+05  0.3273683E-05 -0.1357016E-05  0.5872517E+05  0.3294358E+04 -0.7866954E-03  0.2564490E-04  0.1600090E+01 -0.3024864E-01  0.3154461E-03  0.5874634E-03  0.2501348E+06  0.1220979E+05  0.1833989E-05 -0.8940697E-07
  0.5400000E+00  0.2621564E+06  0.3251932E+04  0.2483030E-02 -0.7227063E-05 -0.1631066E+01 -0.1300206E+00 -0.9716881E-02  0.6036460E-04  0.1592413E+07  0.3113877E+05 -0.4769972E-04  0.1399824E-04  0.5967466E+05  0.4134905E+04  0.8940697E-05  0.1142919E-04  0.2198311E+01 -0.4494858E-01 -0.7276182E-03  0.6389618E-03  0.2524123E+06  0.1534192E+05 -0.2428337E-05  0.7748604E-06
  0.5600000E+00  0.2647162E+06  0.4141593E+04 -0.5532588E-03 -0.3471971E-05 -0.9464127E+00  0.1500092E+00 -0.3015144E-02  0.1641512E-03  0.1611057E+07  0.3941834E+05  0.4499035E-03 -0.1758861E-04  0.6086299E+05  0.5134807E+04  0.1201912E-02 -0.9464473E-04  0.3979410E+01  0.4869843E-01  0.9591239E-02 -0.1081467E-02  0.2576002E+06  0.1913108E+05 -0.1915864E-05 -0.4768372E-06
  0.5800000E+00  0.2670329E+06  0.5225398E+04  0.4067503E-03  0.3068149E-04 -0.1658209E+00  0.2069769E+00 -0.7372786E-02  0.2449751E-04  0.1629521E+07  0.4942462E+05  0.9959502E-03 -0.1076589E-04  0.6247847E+05  0.6309688E+04  0.2926023E-03  0.4328787E-05  0.1690003E+01 -0.5860519E-01 -0.1035888E-01 -0.1640320E-03  0.2722634E+06  0.2372159E+05 -0.1849799E-05 -0.2384186E-06
  0.6000000E+00  0.2700290E+06  0.6526772E+04 -0.1486093E-02  0.4193187E-04  0.1140162E+01  0.6494818E+00  0.5508462E-03 -0.7405877E-04  0.1649133E+07  0.6130339E+05  0.5826313E-03  0.3801621E-04  0.6413249E+05  0.7675186E+04  0.6581843E-03 -0.4185736E-04 -0.4918798E+00 -0.3124504E+00 -0.1570384E-02  0.2059937E-02  0.2928385E+06  0.2929996E+05 -0.5563100E-05  0.1192093E-05
  0.6199999E+00  0.2732556E+06  0.8077031E+04  0.5734545E-03  0.4059076E-04  0.2475124E+00  0.3982410E+00  0.6186194E-02 -0.2065301E-03  0.1669912E+07  0.7530669E+05  0.8129721E-03 -0.2586077E-05  0.6545915E+05  0.9244850E+04  0.2871598E-03 -0.3865361E-04 -0.2511142E+01 -0.7462196E+00 -0.4368444E-03 -0.6332397E-03  0.3088925E+06  0.3592398E+05 -0.5191373E-05 -0.2384186E-06
  0.6400000E+00  0.2764915E+06  0.9907955E+04 -0.2572313E-02  0.1335144E-04  0.1845121E+01  0.1307590E+01  0.1387000E-01  0.4473329E-03  0.1690796E+07  0.9166966E+05  0.4797216E-03  0.4326239E-06  0.6687596E+05  0.1104058E+05 -0.7079914E-03 -0.2036989E-04 -0.1753724E+01 -0.5256882E+00 -0.5352497E-02  0.1789093E-02  0.3263903E+06  0.4376111E+05  0.7450581E-06  0.8344650E-06
  0.6600000E+00  0.2798014E+06  0.1206243E+05  0.1388337E-02 -0.2747774E-04  0.1231014E+01  0.7726374E+00  0.2272201E-02 -0.1162171E-02  0.1712832E+07  0.1108691E+06  0.1581916E-03  0.1215283E-04  0.6783836E+05  0.1306489E+05 -0.8084331E-03  0.6185472E-04 -0.2137005E+01 -0.5408173E+00 -0.1676155E-03  0.7705688E-03  0.3352026E+06  0.5285726E+05  0.3612403E-06 -0.8344650E-06
  0.6799999E+00  0.2831861E+06  0.1457468E+05 -0.1832580E-02 -0.1805425E-03  0.2911535E+01  0.1814541E+01  0.2059989E-01 -0.1758337E-03  0.1733393E+07  0.1328233E+06 -0.5365656E-03  0.6979126E-04  0.6860543E+05  0.1533866E+05  0.8015949E-04 -0.9280443E-04 -0.2283433E+01 -0.6803818E+00  0.5839854E-02  0.7247925E-04  0.3449439E+06  0.6378370E+05 -0.1577770E-05  0.4768372E-06
  0.7000000E+00  0.2863201E+06  0.1746950E+05  0.6450074E-03  0.8130074E-04  0.3843689E+01  0.2886858E+01  0.2860172E-01 -0.3478050E-02  0.1751727E+07  0.1578559E+06 -0.1195207E-03 -0.1791888E-04  0.6902631E+05  0.1785467E+05 -0.9108867E-04 -0.6200373E-04 -0.1509694E+01 -0.5115128E+00 -0.5732945E-02  0.7781982E-03  0.3542351E+06  0.7663900E+05  0.1021794E-05 -0.1311302E-05
  0.7199999E+00  0.2887592E+06  0.2076223E+05  0.2206614E-02  0.1317263E-04  0.3081598E+01  0.2615191E+01 -0.2076063E-02 -0.1212001E-02  0.1767278E+07  0.1861311E+06  0.4156987E-03  0.1782252E-04  0.6954684E+05  0.2060170E+05 -0.7630016E-03 -0.2084225E-03 -0.5564584E+00 -0.2005539E+00 -0.3708734E-04 -0.1739502E-02  0.3713569E+06  0.9151509E+05  0.2317959E-05  0.1549721E-05
  0.7399999E+00  0.2911833E+06  0.2448638E+05 -0.1247993E-02  0.1649261E-03  0.1478123E+01  0.1490200E+01  0.1325124E-01 -0.2563596E-02  0.1780917E+07  0.2177583E+06 -0.6735062E-05 -0.3830492E-06  0.7017930E+05  0.2360704E+05  0.4866640E-03 -0.2198219E-03  0.2649668E+00  0.1288605E+00 -0.9139810E-02 -0.3433228E-02  0.3917990E+06  0.1084999E+06 -0.8054683E-06 -0.3576279E-06
  0.7599999E+00  0.2938424E+06  0.2869820E+05 -0.4903345E-02 -0.7832050E-04  0.9651989E+00  0.1285168E+01  0.1436237E-01 -0.7355213E-03  0.1794067E+07  0.2533470E+06  0.2223925E-04  0.9420299E-04  0.7028857E+05  0.2683337E+05 -0.2990821E-03 -0.2759993E-03  0.1405566E+01  0.8764725E+00 -0.1746730E-02 -0.1861572E-02  0.4036967E+06  0.1274200E+06 -0.1568544E-06 -0.7152557E-06
  0.7800000E+00  0.2961744E+06  0.3342500E+05  0.8165073E-03  0.4291534E-03  0.2437298E+00  0.4601822E+00  0.1538900E-01 -0.1889944E-02  0.1804578E+07  0.2922312E+06  0.1060679E-02 -0.9473589E-04  0.7031094E+05  0.3030847E+05 -0.8084262E-03 -0.3868639E-03  0.2376097E+01  0.1550949E+01  0.1360575E-01 -0.2517700E-02  0.4200634E+06  0.1495502E+06  0.4584973E-06  0.2145767E-05
  0.8000000E+00  0.2981480E+06  0.3863916E+05 -0.5349517E-04 -0.6629229E-03  0.4113388E+00  0.9651985E+00  0.1273081E-01  0.2009869E-02  0.1811711E+07  0.3346236E+06  0.6023727E-03  0.3578733E-04  0.6994980E+05  0.3398166E+05  0.1605656E-02  0.1559556E-03  0.2355833E+01  0.1782028E+01 -0.3385544E-02 -0.2113342E-02  0.4386882E+06  0.1752211E+06  0.1788139E-05 -0.1430511E-05
  0.8200000E+00  0.2997849E+06  0.4435051E+05  0.1729407E-02 -0.2410412E-03  0.6727079E+00  0.1161343E+01 -0.4757032E-02  0.2482176E-02  0.1815092E+07  0.3804963E+06  0.1436147E-02 -0.1431404E-03  0.6907999E+05  0.3784318E+05  0.1319843E-03 -0.3966689E-03  0.1809218E+01  0.1502579E+01  0.1488662E-03 -0.2029419E-02  0.4515260E+06  0.2040370E+06  0.9449517E-06  0.2861023E-05
  0.8399999E+00  0.3014898E+06  0.5051260E+05  0.2191606E-02  0.1040697E-03  0.3825778E+00  0.1159607E+01  0.1297820E-01  0.1623631E-02  0.1814932E+07  0.4295085E+06  0.5918847E-03 -0.1968065E-05  0.6777621E+05  0.4187452E+05  0.4996236E-03 -0.1076758E-03  0.1209434E+01  0.1112427E+01  0.7992700E-03 -0.5340576E-04  0.4583083E+06  0.2361935E+06 -0.1561074E-05  0.2384186E-06
  0.8600000E+00  0.3030878E+06  0.5714216E+05  0.2385711E-02 -0.6675720E-04  0.4383708E+00  0.1796677E+01  0.8656119E-02  0.2276897E-02  0.1811498E+07  0.4816238E+06  0.5264038E-03 -0.8503183E-04  0.6615850E+05  0.4604279E+05  0.1594519E-02  0.1505315E-03 -0.7823013E-01 -0.9420776E-01  0.7241271E-03  0.2250671E-02  0.4600702E+06  0.2704350E+06 -0.1039616E-05  0.1668930E-05
  0.8799999E+00  0.3042026E+06  0.6427474E+05 -0.6446108E-03  0.4601479E-03  0.2456145E+00  0.1210365E+01  0.1414283E-01 -0.5604029E-02  0.1805473E+07  0.5370423E+06 -0.5963129E-03 -0.1660977E-03  0.6400784E+05  0.5026123E+05 -0.8737500E-05 -0.3395975E-03 -0.6665523E+00 -0.1076157E+01 -0.3584407E-02 -0.2029419E-02  0.4508883E+06  0.3053488E+06 -0.1015988E-06  0.1430511E-05
  0.9000000E+00  0.3042405E+06  0.7190369E+05  0.1891454E-02  0.1506805E-03  0.2441915E+00  0.8482208E+00  0.4359087E-02 -0.3055096E-02  0.1795641E+07  0.5944506E+06  0.2610781E-03 -0.1028238E-03  0.6194478E+05  0.5449562E+05 -0.1340939E-03 -0.2874732E-03 -0.7135302E+00 -0.1191650E+01 -0.3728469E-02  0.1355743E-01  0.4529185E+06  0.3448647E+06  0.1490116E-06 -0.4768372E-05
  0.9200000E+00  0.3037365E+06  0.7987144E+05  0.2297824E-02  0.6480217E-03  0.5556189E-01  0.9288406E+00  0.1931968E-02 -0.1348686E-01  0.1781232E+07  0.6538216E+06  0.2967402E-03  0.7879760E-04  0.5957759E+05  0.5869083E+05  0.2941747E-03 -0.1934171E-04 -0.6230292E+00 -0.1113052E+01  0.1310266E-02 -0.3990173E-02  0.4574269E+06  0.3890676E+06  0.4049229E-08 -0.3576279E-05
  0.9400000E+00  0.3029528E+06  0.8815735E+05 -0.5543993E-02  0.8153915E-04 -0.4024587E+00 -0.9290009E+00  0.3910952E-02 -0.3175259E-02  0.1762513E+07  0.7146019E+06 -0.4436425E-03 -0.1421014E-03  0.5685685E+05  0.6285734E+05 -0.8795331E-03 -0.3985763E-03 -0.3387715E+00 -0.8903656E+00 -0.6996317E-02 -0.3318787E-02  0.4562654E+06  0.4361760E+06 -0.1585230E-07 -0.2622604E-05
  0.9599999E+00  0.3019187E+06  0.9674302E+05  0.2841155E-02  0.4694462E-03 -0.3089269E+00 -0.1426117E+01 -0.2217678E-01 -0.6448746E-02  0.1739902E+07  0.7762451E+06 -0.9259839E-03  0.1422165E-03  0.5372682E+05  0.6693569E+05  0.2035406E-03 -0.3197789E-03 -0.2363384E+00 -0.8278961E+00  0.1347661E-01 -0.6500244E-02  0.4472805E+06  0.4854364E+06 -0.3104409E-07 -0.2145767E-05
  0.9799999E+00  0.3003555E+06  0.1055865E+06  0.1507633E-02 -0.1027822E-02 -0.5231741E+00 -0.9120102E+00  0.1002331E-03 -0.2309322E-02  0.1713069E+07  0.8382503E+06 -0.7176514E-03  0.1978863E-03  0.5053316E+05  0.7096286E+05  0.3619766E-03 -0.1401007E-03 -0.1200034E+00 -0.6719208E+00  0.4727500E-02  0.2548218E-02  0.4355643E+06  0.5363300E+06 -0.1824632E-06 -0.2145767E-05
  0.9999999E+00  0.2982525E+06  0.1145979E+06  0.2150715E-02 -0.1502275E-02 -0.3250122E+00 -0.7976685E+00  0.9917141E-02  0.1128388E-01  0.1682177E+07  0.9011391E+06 -0.1390357E-03  0.2676547E-03  0.4712144E+05  0.7483623E+05 -0.4353896E-03  0.2129972E-03 -0.1587944E+00 -0.8713226E+00  0.5384446E-02 -0.4241943E-02  0.4177168E+06  0.5885586E+06  0.1549721E-05  0.2861023E-05
  0.1020000E+01  0.2954915E+06  0.1237039E+06 -0.1457860E-02 -0.1366615E-02 -0.4918117E+00 -0.5354462E+00  0.1124465E-01  0.1499176E-02  0.1648180E+07  0.9630436E+06 -0.8740178E-03 -0.3815453E-03  0.4349352E+05  0.7850567E+05  0.4593940E-03  0.3417730E-03 -0.6637573E-01 -0.8707733E+00  0.1619376E-02 -0.1884460E-02  0.3897402E+06  0.6309813E+06 -0.3506156E-06  0.1430511E-05
  0.1040000E+01  0.2920607E+06  0.1328973E+06 -0.4076886E-02 -0.1219511E-02 -0.6636546E+00 -0.7162476E+00  0.1279302E-01  0.9160519E-02  0.1611100E+07  0.1023492E+07 -0.9051383E-03  0.4875367E-04  0.3989754E+05  0.8190305E+05 -0.6515175E-03 -0.9540319E-03 -0.4218542E-01 -0.8624802E+00  0.6422630E-02 -0.8285522E-02  0.3692794E+06  0.6813123E+06 -0.9169946E-06  0.2384186E-05
  0.1060000E+01  0.2882309E+06  0.1420730E+06  0.2235139E-02 -0.1342297E-03 -0.4193432E+00 -0.1168716E+01  0.2238155E-02 -0.2416134E-01  0.1570918E+07  0.1082114E+07  0.9260579E-04  0.5980748E-03  0.3615227E+05  0.8499091E+05  0.4349453E-04 -0.4253685E-03  0.4685600E-01 -0.7371140E+00 -0.2026108E-02  0.4257202E-02  0.3487963E+06  0.7361842E+06 -0.1012154E-05  0.3576279E-05
  0.1080000E+01  0.2839150E+06  0.1511927E+06 -0.1766615E-02  0.2578735E-02 -0.3012622E+00 -0.1268372E+01 -0.1285460E-02 -0.1015663E-03  0.1527810E+07  0.1138659E+07  0.4983057E-03  0.4058739E-03  0.3231919E+05  0.8784896E+05  0.9008303E-04  0.3944933E-03  0.9287374E-01 -0.9798737E+00 -0.4203231E-03  0.8117676E-02  0.3235946E+06  0.7914181E+06  0.0000000E+00  0.2264977E-05
  0.1100000E+01  0.2791816E+06  0.1600872E+06 -0.1037690E-02  0.5888939E-03 -0.1395486E-01 -0.1851349E+00 -0.7305091E-03 -0.1461411E-01  0.1482567E+07  0.1192834E+07 -0.1552154E-03  0.1604543E-04  0.2826968E+05  0.9040563E+05  0.2686679E-03  0.2563000E-05  0.1174025E+00 -0.8787689E+00 -0.2240268E-02 -0.6725311E-02  0.2916694E+06  0.8454068E+06 -0.1192093E-05  0.3576279E-06
  0.1120000E+01  0.2741675E+06  0.1687526E+06  0.1077780E-02  0.1758575E-02 -0.1014709E+00  0.1197205E+00 -0.5954025E-02 -0.7550240E-02  0.1435526E+07  0.1244081E+07 -0.2978162E-03 -0.9692661E-04  0.2433746E+05  0.9282573E+05  0.2857830E-04  0.7803738E-04  0.1767499E+00 -0.8024292E+00  0.3593309E-02  0.1130295E-01  0.2556825E+06  0.8989013E+06  0.8514949E-06  0.9536743E-06
  0.1140000E+01  0.2688318E+06  0.1772644E+06 -0.2265709E-02 -0.1799107E-02 -0.2340350E+00  0.5014038E-01  0.1760951E-03 -0.1069069E-02  0.1387246E+07  0.1292173E+07 -0.3662172E-03 -0.6081567E-04  0.2065527E+05  0.9488563E+05 -0.1283853E-03  0.4616529E-03  0.1628943E+00 -0.7410965E+00  0.5186650E-03  0.7884979E-02  0.2187673E+06  0.9492721E+06  0.1045696E-05 -0.5960464E-06
  0.1160000E+01  0.2631365E+06  0.1855258E+06  0.2920628E-02  0.2245903E-03 -0.5463173E+00 -0.5449524E+00 -0.6656709E-02  0.1350212E-01  0.1337488E+07  0.1337538E+07 -0.2037381E-03  0.1336466E-03  0.1691765E+05  0.9650691E+05  0.1079563E-03 -0.2608895E-03  0.1084032E+00 -0.4188232E+00  0.2762367E-03  0.7228851E-02  0.1785624E+06  0.9882331E+06 -0.2363633E-05 -0.1430511E-05
  0.1180000E+01  0.2573004E+06  0.1934477E+06  0.3555468E-02  0.1947880E-02 -0.1495103E+01 -0.1467804E+01  0.1006591E-01  0.1186371E-01  0.1287945E+07  0.1379090E+07 -0.6792421E-03  0.4762150E-03  0.1330291E+05  0.9798167E+05  0.1908738E-03  0.1279116E-03 -0.1148289E-01  0.8410645E-01  0.6756540E-03  0.6931305E-02  0.1399825E+06  0.1012565E+07  0.7071738E-06  0.1549721E-05
  0.1200000E+01  0.2515269E+06  0.2010188E+06 -0.2363324E-03  0.3542900E-03 -0.3654353E+00 -0.1060959E+01 -0.1000325E-01  0.9007454E-02  0.1238732E+07  0.1416887E+07  0.3661761E-03 -0.1636696E-03  0.9861551E+04  0.9926041E+05 -0.6449719E-04  0.8454770E-03 -0.7146199E-01  0.2655640E+00 -0.1990000E-02 -0.2031708E-01  0.1039732E+06  0.1051734E+07  0.6953875E-06 -0.8344650E-06
  0.1220000E+01  0.2456798E+06  0.2082079E+06 -0.2003107E-03 -0.3595352E-03 -0.4601525E+00 -0.4804688E+00  0.1551675E-02 -0.6532669E-02  0.1189497E+07  0.1450728E+07  0.7631491E-03  0.1240787E-03  0.6473975E+04  0.1002608E+06  0.5729618E-04 -0.6356835E-03 -0.1223392E+00  0.3605537E+00 -0.3627089E-03 -0.1889801E-01  0.6671514E+05  0.1096197E+07 -0.9771253E-06  0.3576279E-06
  0.1240000E+01  0.2398891E+06  0.2150610E+06 -0.1133161E-02  0.5483627E-04 -0.2120972E+00 -0.4708405E+00 -0.7790904E-03 -0.5974770E-02  0.1140328E+07  0.1481090E+07  0.6659593E-04 -0.4175986E-03  0.3142673E+04  0.1010670E+06  0.1478099E-05 -0.1099080E-02 -0.1339759E+00  0.2637215E+00  0.2821030E-02  0.1680946E-01  0.2670873E+05  0.1138534E+07  0.3845461E-06 -0.1132488E-05
  0.1260000E+01  0.2338193E+06  0.2215602E+06  0.9905724E-03  0.1410484E-02 -0.5338275E+00 -0.5860596E+00  0.8519112E-02  0.2096176E-02  0.1092149E+07  0.1507650E+07  0.1947173E-03  0.5729161E-03 -0.7647771E+02  0.1014585E+06  0.1238216E-04 -0.3019497E-03 -0.7909744E-01  0.2179527E+00 -0.1180740E-03 -0.1194000E-01 -0.1488494E+05  0.1174704E+07 -0.3784422E-06  0.1072884E-05
  0.1280000E+01  0.2276355E+06  0.2276359E+06 -0.1303665E-02 -0.1586914E-02  0.7419586E+00  0.3608856E+00  0.8266792E-02 -0.3611565E-02  0.1045056E+07  0.1530349E+07 -0.8277576E-03 -0.1837378E-03 -0.3104668E+04  0.1015416E+06  0.7473864E-05  0.8223876E-03 -0.8554459E-01  0.1241074E+00  0.2193451E-02  0.1821518E-02 -0.5810660E+05  0.1205319E+07  0.9313226E-06 -0.5364418E-06
  0.1300000E+01  0.2215763E+06  0.2333530E+06  0.1393282E-02  0.2133846E-02  0.1568369E+00 -0.7454529E+00 -0.6826107E-02 -0.1005840E-01  0.9987090E+06  0.1549793E+07  0.6012181E-03 -0.1689219E-03 -0.5933127E+04  0.1015416E+06  0.2709719E-04  0.3660545E-03 -0.7956285E-01  0.1620750E+00 -0.2057002E-02  0.4539490E-02 -0.1035670E+06  0.1230843E+07  0.5501967E-06 -0.2980232E-06
  0.1320000E+01  0.2156751E+06  0.2386314E+06  0.1810356E-02 -0.3671646E-03 -0.7496342E+00 -0.8602753E+00  0.8222912E-02 -0.1017570E-02  0.9536631E+06  0.1565996E+07  0.4171579E-03  0.4981470E-03 -0.8557486E+04  0.1014609E+06 -0.9403536E-05  0.5010143E-03 -0.3695632E-01  0.9074211E-01 -0.3924514E-02  0.1260757E-02 -0.1515421E+06  0.1253102E+07 -0.1535271E-05  0.1788139E-06
  0.1340000E+01  0.2097441E+06  0.2433950E+06  0.5531667E-03 -0.1777649E-02 -0.1114973E+01  0.6341553E-01 -0.2935751E-03 -0.3191948E-02  0.9101438E+06  0.1578620E+07  0.5495014E-03 -0.1640138E-03 -0.1119651E+05  0.1011050E+06 -0.3152374E-03  0.8369088E-03 -0.8911303E-01  0.1378307E+00 -0.4133537E-02 -0.2052689E-01 -0.1914172E+06  0.1262539E+07  0.3558486E-06 -0.1788139E-06
  0.1360000E+01  0.2038632E+06  0.2478134E+06 -0.9031857E-03 -0.3190041E-03 -0.1017054E+01 -0.1498917E+01  0.5141426E-02 -0.1226234E-01  0.8683652E+06  0.1588139E+07  0.9951360E-03  0.5680556E-03 -0.1359498E+05  0.1006998E+06 -0.5490421E-04 -0.1005687E-02  0.2459358E-01 -0.2773285E-01 -0.2858218E-02  0.8792877E-02 -0.2180101E+06  0.1264270E+07  0.2629617E-06  0.6556511E-06
  0.1380000E+01  0.1981710E+06  0.2518362E+06 -0.6157419E-03 -0.4715443E-02 -0.4093447E+00 -0.1762909E+01  0.7469758E-02  0.1144695E-01  0.8283797E+06  0.1594713E+07  0.7062929E-03 -0.9634882E-03 -0.1576094E+05  0.1001946E+06 -0.2788677E-03  0.9496510E-04  0.1683553E+00 -0.2655125E+00  0.2540367E-02 -0.2495193E-01 -0.2475068E+06  0.1277884E+07  0.1036602E-05  0.1788139E-06
  0.1400000E+01  0.1926714E+06  0.2554395E+06  0.6490094E-03  0.1079082E-02  0.4158565E+00 -0.7354584E+00  0.2035209E-01 -0.1305008E-01  0.7902041E+06  0.1598300E+07  0.1297913E-02  0.1857026E-03 -0.1780850E+05  0.9957146E+05 -0.6546931E-04  0.2681091E-03  0.1672745E+00 -0.1827259E+00  0.3441402E-02  0.7452011E-02 -0.2814044E+06  0.1299284E+07 -0.5534717E-06 -0.1490116E-06
  0.1420000E+01  0.1874155E+06  0.2587441E+06 -0.1568190E-03  0.2744675E-02 -0.1808553E+01 -0.4331970E+00 -0.4614239E-02  0.1681519E-01  0.7531603E+06  0.1598823E+07  0.2529278E-03  0.1861171E-03 -0.1991156E+05  0.9874171E+05 -0.7548698E-04 -0.1079526E-02  0.2666742E+00 -0.2235584E+00  0.4643454E-02 -0.2677441E-01 -0.3182831E+06  0.1317304E+07  0.5456764E-06 -0.2980232E-07
  0.1440000E+01  0.1822183E+06  0.2617497E+06 -0.7030037E-03  0.2555847E-02  0.4004680E+01 -0.4152008E+01  0.1669062E-01  0.5621910E-02  0.7178991E+06  0.1596790E+07 -0.2396404E-03 -0.3682898E-04 -0.2181606E+05  0.9799765E+05 -0.1771013E-03  0.2960637E-03  0.2019485E+00 -0.1509266E+00 -0.4324648E-02 -0.4486084E-01 -0.3539439E+06  0.1333351E+07  0.5794896E-06 -0.2980232E-06
  0.1460000E+01  0.1770250E+06  0.2642977E+06 -0.2730383E-03  0.4803181E-02  0.6681980E+01 -0.3032883E+01  0.5232145E-03  0.8913994E-02  0.6847500E+06  0.1592592E+07  0.3068772E-03 -0.3456029E-03 -0.2365391E+05  0.9687877E+05  0.2623166E-03 -0.3047734E-03  0.2648053E+00 -0.1548815E+00  0.8961925E-02 -0.1883221E-01 -0.3900442E+06  0.1341377E+07  0.0000000E+00  0.4172325E-06
  0.1480000E+01  0.1720333E+06  0.2666134E+06 -0.4030563E-03 -0.8840561E-03  0.2817700E+01  0.6177216E+00  0.2031713E-02  0.1403809E-02  0.6530192E+06  0.1585820E+07  0.6786420E-04 -0.7081527E-03 -0.2528865E+05  0.9574608E+05 -0.2705870E-04 -0.1296058E-02  0.4690660E+00 -0.3400669E+00  0.1216579E-02  0.2674103E-02 -0.4254545E+06  0.1343442E+07  0.1208202E-06 -0.2980232E-06
  0.1500000E+01  0.1672998E+06  0.2685650E+06  0.1077016E-02 -0.3000736E-02  0.2071859E+01 -0.6480911E+01  0.5512238E-03 -0.1913929E-01  0.6230031E+06  0.1577380E+07  0.1373735E-03  0.1886395E-03 -0.2681666E+05  0.9468436E+05  0.2195686E-03 -0.7991865E-04  0.2154388E+00 -0.2611246E+00 -0.8253734E-02 -0.1526070E-01 -0.4611135E+06  0.1338771E+07 -0.1986821E-06  0.6258488E-06
  0.1520000E+01  0.1627797E+06  0.2701082E+06  0.2785733E-03 -0.5483627E-03  0.1499989E+01 -0.9570465E+00  0.6287976E-02  0.3677368E-02  0.5948403E+06  0.1567607E+07  0.9545343E-04  0.1032954E-03 -0.2811030E+05  0.9378333E+05  0.1288313E-03 -0.1254156E-03  0.1319835E+00 -0.1132545E+00  0.3362957E-03 -0.1015663E-02 -0.4955729E+06  0.1327456E+07  0.1097980E-05 -0.2682209E-06
  0.1540000E+01  0.1583408E+06  0.2713488E+06  0.5437182E-03  0.1788616E-02  0.5195494E+01  0.5449203E+01  0.3260452E-02 -0.4367828E-02  0.5684481E+06  0.1555652E+07  0.2175816E-03 -0.2278144E-03 -0.2933575E+05  0.9277269E+05 -0.1963083E-03  0.9283349E-03  0.6662840E-01  0.3522873E-02  0.1024519E-01  0.7934570E-02 -0.5266812E+06  0.1319345E+07 -0.3870431E-06  0.5960464E-07
  0.1560000E+01  0.1541178E+06  0.2722523E+06  0.7797510E-03 -0.1768112E-02 -0.4961092E+01  0.5252487E+01 -0.1879533E-01  0.1675606E-01  0.5437169E+06  0.1542404E+07  0.5081075E-03  0.4871033E-03 -0.3062261E+05  0.9169416E+05  0.4048435E-03 -0.5386397E-04 -0.3875341E-01  0.3528595E-01  0.1935470E-02  0.6800652E-02 -0.5385061E+06  0.1319629E+07  0.4202892E-06  0.2682209E-06