VARIABLES="w (rad/s)"  
"abs(F   1   1)" "angle(F   1   1)"
"abs(F   1   2)" "angle(F   1   2)"
"abs(F   1   3)" "angle(F   1   3)"
"abs(F   1   4)" "angle(F   1   4)"
"abs(F   1   5)" "angle(F   1   5)"
"abs(F   1   6)" "angle(F   1   6)"
"abs(F   2   1)" "angle(F   2   1)"
"abs(F   2   2)" "angle(F   2   2)"
"abs(F   2   3)" "angle(F   2   3)"
"abs(F   2   4)" "angle(F   2   4)"
"abs(F   2   5)" "angle(F   2   5)"
"abs(F   2   6)" "angle(F   2   6)"
Zone t="Diffraction force - beta =   0.000 deg",I=   260,F=POINT
  0.2000000E-01  0.8519482E+02 -0.1570757E+01  0.6295412E-04 -0.3126841E+01  0.5341683E+03 -0.3140965E+01  0.6857523E-03  0.1034524E-01  0.9953137E+03 -0.1570771E+01  0.5905269E-07 -0.1348545E+01  0.3425719E+03 -0.1570836E+01  0.4846382E-04 -0.3015510E+01  0.4412702E+04 -0.3141586E+01  0.4675864E-02 -0.3137619E+01  0.1427247E+04 -0.1571268E+01  0.2980232E-08 -0.1570796E+01
  0.4000000E-01  0.3406691E+03 -0.1570799E+01  0.5305895E-04 -0.8403683E-01  0.2145743E+04 -0.3139091E+01  0.2076047E-02  0.4406098E-01  0.3975643E+04 -0.1570759E+01  0.4155059E-07  0.1681346E+01  0.1367724E+04 -0.1570829E+01  0.4861920E-04 -0.2521311E+00  0.1758473E+05 -0.3141566E+01  0.2472994E-01 -0.7179051E-02  0.5651943E+04 -0.1571101E+01  0.3099441E-07  0.1570796E+01
  0.6000000E-01  0.7660789E+03 -0.1570781E+01  0.5593437E-03 -0.3078842E+01  0.4851596E+04 -0.3136019E+01  0.9566443E-02  0.3125850E+01  0.8925533E+04 -0.1570797E+01  0.1222079E-06  0.2051353E+01  0.3067892E+04 -0.1570815E+01  0.4003768E-03 -0.2809125E+01  0.3931902E+05 -0.3141536E+01  0.1112539E+00 -0.3136026E+01  0.1250729E+05 -0.1571346E+01  0.3218651E-07  0.1570796E+01
  0.8000000E-01  0.1360885E+04 -0.1570799E+01  0.9411743E-04 -0.3338630E+00  0.8697809E+04 -0.3131845E+01  0.1136236E-01 -0.7050412E-02  0.1581300E+05 -0.1570801E+01  0.1766495E-05 -0.1410107E+01  0.5430148E+04 -0.1570774E+01  0.2966931E-03 -0.9759603E+00  0.6928484E+05 -0.3141505E+01  0.7167645E-02  0.2859100E+01  0.2171151E+05 -0.1571213E+01  0.1907349E-07 -0.1570796E+01
  0.9999999E-01  0.2124456E+04 -0.1570810E+01  0.2083920E-03  0.4263908E+00  0.1370016E+05 -0.3126638E+01  0.2805891E-01 -0.4765772E-01  0.2460399E+05 -0.1570793E+01  0.6573663E-05 -0.1550949E+01  0.8437212E+04 -0.1570810E+01  0.1528698E-02  0.3519078E+00  0.1070343E+06 -0.3141483E+01  0.5539323E-01 -0.3090968E+01  0.3289781E+05 -0.1571301E+01  0.8344649E-07  0.1570796E+01
  0.1200000E+00  0.3055599E+04 -0.1570800E+01  0.2906249E-03 -0.2771415E+01  0.1989496E+05 -0.3120489E+01  0.2239256E-01  0.3110075E+01  0.3525103E+05 -0.1570785E+01  0.6053664E-05  0.1578338E+01  0.1206733E+05 -0.1570792E+01  0.2192892E-02  0.1947285E+01  0.1519972E+06 -0.3141481E+01  0.5994808E+00 -0.3863827E-02  0.4561595E+05 -0.1571196E+01  0.2002716E-06 -0.1570796E+01
  0.1400000E+00  0.4153616E+04 -0.1570800E+01  0.1915279E-02  0.3090647E+01  0.2733605E+05 -0.3113506E+01  0.3980336E-01 -0.2946719E-01  0.4769018E+05 -0.1570784E+01  0.7345421E-05  0.1644347E+01  0.1629234E+05 -0.1570802E+01  0.4358984E-02 -0.3109427E+01  0.2034905E+06 -0.3141517E+01  0.2896890E+00 -0.2592329E-01  0.5930733E+05 -0.1571145E+01  0.3337860E-07 -0.1570796E+01
  0.1600000E+00  0.5416483E+04 -0.1570721E+01  0.2158533E-02 -0.1534045E-01  0.3614196E+05 -0.3105854E+01  0.5356511E-01 -0.3118660E+01  0.6183472E+05 -0.1570749E+01  0.4512288E-05  0.1684154E+01  0.2108387E+05 -0.1570781E+01  0.5610362E-02  0.2654104E+01  0.2607450E+06  0.3141582E+01  0.9616082E+00 -0.3144538E-01  0.7342834E+05 -0.1571383E+01  0.3814697E-06  0.1570796E+01
  0.1800000E+00  0.6843475E+04 -0.1570683E+01  0.2188973E-02 -0.3090420E+01  0.4624788E+05 -0.3097480E+01  0.2507967E+00 -0.3105990E+01  0.7763269E+05 -0.1570676E+01  0.4075316E-04 -0.1601529E+01  0.2640623E+05 -0.1570732E+01  0.7017496E-03 -0.1629274E+01  0.3229026E+06  0.3141423E+01  0.8325368E+00  0.7000645E-02  0.8735043E+05 -0.1571304E+01  0.9441375E-06  0.1570796E+01
  0.2000000E+00  0.8433096E+04 -0.1570607E+01  0.9484923E-03 -0.3394934E+00  0.5774208E+05 -0.3088490E+01  0.6930520E-01  0.3051737E+01  0.9498366E+05 -0.1570625E+01  0.7063611E-05  0.1221268E+01  0.3222278E+05 -0.1570711E+01  0.9691375E-02 -0.3072993E+01  0.3890296E+06  0.3141171E+01  0.1121551E+01 -0.2423301E-01  0.1004566E+06 -0.1571196E+01  0.1907349E-06  0.1570796E+01
  0.2200000E+00  0.1018295E+05 -0.1570435E+01  0.3160457E-02  0.4368357E+00  0.7052684E+05 -0.3078765E+01  0.1169226E-01 -0.1402403E+01  0.1138320E+06 -0.1570448E+01  0.2983213E-05 -0.2237265E+01  0.3849273E+05 -0.1570631E+01  0.7790961E-02 -0.4792799E-01  0.4581372E+06  0.3140799E+01  0.2621920E+01  0.3141279E+01  0.1121330E+06 -0.1571215E+01  0.1049042E-06  0.1570796E+01
  0.2400000E+00  0.1209085E+05 -0.1570188E+01  0.1067199E-02 -0.2103749E+01  0.8505273E+05 -0.3068707E+01  0.1151089E+00 -0.6226501E-01  0.1339765E+06 -0.1570237E+01  0.9195778E-05  0.1811726E+01  0.4517354E+05 -0.1570533E+01  0.3576083E-02 -0.2891646E+00  0.5292209E+06  0.3140287E+01  0.9769946E+00  0.8066516E-02  0.1218025E+06 -0.1571142E+01  0.1144409E-06  0.1570796E+01
  0.2600000E+00  0.1415474E+05 -0.1569854E+01  0.4269424E-02  0.1305501E+00  0.1011268E+06 -0.3058078E+01  0.1197788E+00  0.9821482E-01  0.1553497E+06 -0.1569911E+01  0.1749051E-04 -0.1473221E+01  0.5221736E+05 -0.1570372E+01  0.6835116E-02  0.2775110E+01  0.6012291E+06  0.3139581E+01  0.1084500E+01 -0.3139317E+01  0.1288683E+06 -0.1570903E+01  0.2479553E-06  0.1570796E+01
  0.2800000E+00  0.1637734E+05 -0.1569356E+01  0.2079781E-01 -0.9882419E-01  0.1185986E+06 -0.3046697E+01  0.7787383E-01 -0.5372731E-01  0.1778962E+06 -0.1569448E+01  0.3953192E-05  0.2709723E+01  0.5957827E+05 -0.1570154E+01  0.6408089E-02 -0.5676129E+00  0.6731299E+06  0.3138676E+01  0.3740443E+00 -0.1060380E+00  0.1328894E+06 -0.1570497E+01  0.2670288E-06  0.1570796E+01
  0.3000000E+00  0.1874761E+05 -0.1568694E+01  0.2032444E-02  0.3088780E+01  0.1378516E+06 -0.3034838E+01  0.1232514E+00  0.3521246E+00  0.2013711E+06 -0.1568790E+01  0.7123269E-04  0.1625669E+01  0.6721381E+05 -0.1569863E+01  0.1639449E-01 -0.1643574E+00  0.7438777E+06  0.3137512E+01  0.4098847E+01 -0.2309547E-01  0.1335836E+06 -0.1569706E+01  0.1573563E-05 -0.1570796E+01
  0.3200000E+00  0.2127070E+05 -0.1567786E+01  0.1977613E-02 -0.1663363E+01  0.1588289E+06 -0.3022412E+01  0.1481725E+00  0.1764120E+00  0.2256660E+06 -0.1567924E+01  0.8336236E-04 -0.1546697E+01  0.7506627E+05 -0.1569440E+01  0.8617056E-02  0.2894033E+01  0.8125669E+06  0.3136039E+01  0.2192102E+01  0.3138272E+01  0.1304635E+06 -0.1568525E+01  0.3051758E-06  0.1570796E+01
  0.3400000E+00  0.2393815E+05 -0.1566610E+01  0.1924423E-02 -0.2384554E+01  0.1812373E+06 -0.3009094E+01  0.3417785E+00 -0.1408837E-02  0.2507597E+06 -0.1566761E+01  0.3989806E-04 -0.1807846E+01  0.8309646E+05 -0.1568913E+01  0.1646128E-01  0.3137358E+01  0.8781135E+06  0.3134205E+01  0.4447899E+00  0.3598246E+00  0.1236168E+06 -0.1566441E+01  0.6484985E-06  0.1570796E+01
  0.3600000E+00  0.2674818E+05 -0.1565108E+01  0.7553986E-02 -0.4109766E-01  0.2056590E+06 -0.2995429E+01  0.2758271E+00  0.2476274E+00  0.2762610E+06 -0.1565260E+01  0.2426358E-04 -0.1679377E+01  0.9123735E+05 -0.1568238E+01  0.3141877E-01  0.3012526E+01  0.9398765E+06  0.3131942E+01  0.1797748E+01 -0.3102502E+01  0.1126135E+06 -0.1562912E+01  0.0000000E+00  0.0000000E+00
  0.3800000E+00  0.2969851E+05 -0.1563213E+01  0.4622422E-02 -0.5758691E+00  0.2314431E+06 -0.2980759E+01  0.3975904E+00  0.2949578E+01  0.3022664E+06 -0.1563338E+01  0.3620217E-05 -0.5859778E-01  0.9945794E+05 -0.1567377E+01  0.1067726E-01  0.1771908E+01  0.9967485E+06  0.3129179E+01  0.3147539E+01 -0.3071773E+01  0.9794169E+05 -0.1557096E+01  0.3652165E-06  0.1446441E+01
  0.4000000E+00  0.3278642E+05 -0.1560862E+01  0.3789850E-02 -0.1718288E+01  0.2591578E+06 -0.2965753E+01  0.5024295E+00 -0.3140437E+01  0.3283151E+06 -0.1560915E+01  0.3219754E-04  0.2207064E+01  0.1076893E+06 -0.1566314E+01  0.3423988E-01 -0.2923773E+01  0.1048481E+07  0.3125851E+01  0.2320461E+01 -0.3129382E+01  0.7933511E+05 -0.1546968E+01  0.7629395E-06  0.1570796E+01
  0.4200000E+00  0.3599077E+05 -0.1557983E+01  0.2249058E-01  0.2714597E+00  0.2882156E+06 -0.2949886E+01  0.3923347E+00  0.2719852E+01  0.3544925E+06 -0.1557897E+01  0.4631524E-04  0.2405718E+01  0.1158923E+06 -0.1565006E+01  0.1316517E+00  0.2774395E+01  0.1094078E+07  0.3121855E+01  0.3777755E+01 -0.3093779E+01  0.5745818E+05 -0.1525009E+01  0.1201630E-05  0.1570796E+01
  0.4400000E+00  0.3932865E+05 -0.1554518E+01  0.1966271E-01 -0.2760440E+01  0.3185042E+06 -0.2933288E+01  0.4031611E+00  0.2723773E+00  0.3805625E+06 -0.1554195E+01  0.2402607E-04  0.2165586E+01  0.1240096E+06 -0.1563418E+01  0.3440223E-01 -0.6253065E+00  0.1133505E+07  0.3117139E+01  0.1165696E+01 -0.2935983E+01  0.3252502E+05 -0.1462059E+01  0.2103976E-05 -0.1495937E+01
  0.4600000E+00  0.4276384E+05 -0.1550387E+01  0.4479085E-02  0.6583889E+00  0.3508719E+06 -0.2916824E+01  0.8408974E+00  0.3002333E+01  0.4058400E+06 -0.1549701E+01  0.4236591E-04 -0.1743392E+01  0.1319990E+06 -0.1561520E+01  0.6637426E-01  0.9376914E+00  0.1166422E+07  0.3111620E+01  0.2993217E+00 -0.2121677E+00  0.6691598E+04 -0.7935214E+00  0.2641265E-05 -0.1653938E+01
  0.4800000E+00  0.4630549E+05 -0.1545553E+01  0.2378687E-01 -0.5886965E+00  0.3839759E+06 -0.2899225E+01  0.3275943E+00  0.4816485E+00  0.4307482E+06 -0.1544322E+01  0.1714629E-04 -0.1992983E+01  0.1398030E+06 -0.1559307E+01  0.2611841E-01  0.2035888E+01  0.1191894E+07  0.3105156E+01  0.7216223E+01  0.7918102E-01  0.2533433E+05  0.1326985E+01  0.1831055E-05  0.1570796E+01
  0.5000000E+00  0.4993782E+05 -0.1539954E+01  0.1023094E-01  0.7140860E+00  0.4185037E+06 -0.2881667E+01  0.4561796E+00 -0.4267375E+00  0.4545635E+06 -0.1537933E+01  0.4779887E-04 -0.1848548E+01  0.1473570E+06 -0.1556759E+01  0.5292484E-01  0.2566150E+00  0.1211010E+07  0.3097728E+01  0.3457484E+01 -0.8993110E-01  0.5617289E+05  0.1431798E+01  0.3826321E-05  0.1648763E+01
  0.5200000E+00  0.5361762E+05 -0.1533503E+01  0.2385419E-01 -0.1229105E+01  0.4539748E+06 -0.2863905E+01  0.4656250E+00  0.1874593E+00  0.4770926E+06 -0.1530393E+01  0.6251327E-04  0.1783629E+01  0.1546374E+06 -0.1553857E+01  0.6145180E-01  0.1642771E+01  0.1222810E+07  0.3089232E+01  0.4318372E+01  0.3127275E+01  0.8751727E+05  0.1458984E+01  0.1984611E-05  0.1602036E+01
  0.5400000E+00  0.5736894E+05 -0.1526179E+01  0.2278053E-01 -0.3097292E+01  0.4899322E+06 -0.2845749E+01  0.1580283E+01  0.2904944E+01  0.4983057E+06 -0.1521588E+01  0.1208072E-03 -0.1612141E+01  0.1615832E+06 -0.1550592E+01  0.8102985E-01 -0.2621725E+01  0.1228072E+07  0.3079611E+01  0.4792161E+00  0.1604563E+00  0.1188214E+06  0.1468341E+01  0.6437301E-06  0.9272952E+00
  0.5600000E+00  0.6114884E+05 -0.1517900E+01  0.3359989E-01 -0.2441209E+01  0.5267703E+06 -0.2827851E+01  0.5924909E+00  0.2772879E+01  0.5175058E+06 -0.1511311E+01  0.1649064E-03 -0.1544965E+01  0.1681217E+06 -0.1546896E+01  0.1875897E+00  0.2960202E+01  0.1227141E+07  0.3068845E+01  0.8271314E+01 -0.3107573E+01  0.1497496E+06  0.1470490E+01  0.2136230E-05 -0.1570796E+01
  0.5800000E+00  0.6490281E+05 -0.1508616E+01  0.8172338E-01  0.1019315E+00  0.5640056E+06 -0.2810201E+01  0.6015176E+00  0.2246480E+00  0.5343167E+06 -0.1499389E+01  0.1152531E-03  0.1433195E+01  0.1742460E+06 -0.1542784E+01  0.1708101E+00 -0.4541494E+00  0.1220431E+07  0.3056906E+01  0.9680408E+00  0.2880400E+01  0.1790354E+06  0.1467978E+01  0.4459485E-05  0.1446441E+01
  0.6000000E+00  0.6865119E+05 -0.1498330E+01  0.6655335E-01 -0.1664971E+00  0.6012437E+06 -0.2792351E+01  0.8175036E+00  0.6739700E+00  0.5488162E+06 -0.1485680E+01  0.2940199E-04 -0.3470426E+00  0.1798771E+06 -0.1538256E+01  0.5887759E-01  0.2716976E+01  0.1207109E+07  0.3043529E+01  0.8506739E+01 -0.2980994E+01  0.2061159E+06  0.1462546E+01  0.5809004E-05 -0.1744042E+01
  0.6199999E+00  0.7234120E+05 -0.1486994E+01  0.8701690E-01  0.2698349E+01  0.6383577E+06 -0.2774787E+01  0.3085466E+00 -0.2594427E+01  0.5604560E+06 -0.1469926E+01  0.3678352E-04  0.1110477E+01  0.1849703E+06 -0.1533293E+01  0.1480637E+00  0.6992483E+00  0.1189657E+07  0.3029016E+01  0.4843182E+01 -0.2572322E+00  0.2309289E+06  0.1454211E+01  0.3623840E-05 -0.1776192E+01
  0.6400000E+00  0.7590886E+05 -0.1474565E+01  0.7179600E-01  0.8141479E+00  0.6759659E+06 -0.2758334E+01  0.1624750E+01 -0.2973036E+00  0.5680170E+06 -0.1451729E+01  0.2930207E-04 -0.1014279E+01  0.1894860E+06 -0.1527905E+01  0.3502220E-01  0.8616499E+00  0.1167773E+07  0.3013327E+01  0.5253822E+01  0.3531645E-01  0.2525755E+06  0.1443173E+01  0.2441406E-05 -0.1570796E+01
  0.6600000E+00  0.7933159E+05 -0.1461076E+01  0.1159972E+00 -0.2679882E+01  0.7128084E+06 -0.2741723E+01  0.6982384E+00  0.2328680E+01  0.5722296E+06 -0.1430951E+01  0.8271508E-04  0.1511652E+01  0.1933833E+06 -0.1522117E+01  0.1321243E+00 -0.7488263E+00  0.1140542E+07  0.2995989E+01  0.1140285E+02 -0.2294888E-01  0.2702648E+06  0.1429074E+01  0.1258850E-05 -0.1570796E+01
  0.6799999E+00  0.8258141E+05 -0.1446548E+01  0.5466500E-01 -0.2778001E+01  0.7490411E+06 -0.2725565E+01  0.6014259E+00  0.3053587E+01  0.5723222E+06 -0.1407133E+01  0.2632998E-03  0.1535642E+01  0.1966213E+06 -0.1515967E+01  0.2126188E+00 -0.2679588E+01  0.1110592E+07  0.2977559E+01  0.1795809E+01 -0.7559410E+00  0.2843990E+06  0.1412563E+01  0.1296997E-05  0.1570796E+01
  0.7000000E+00  0.8558853E+05 -0.1430989E+01  0.1811355E+00 -0.2171542E+01  0.7847328E+06 -0.2710110E+01  0.1438305E+01 -0.2654291E+00  0.5677418E+06 -0.1379728E+01  0.2332384E-03  0.1530979E+01  0.1991177E+06 -0.1509482E+01  0.1151233E+00 -0.5685735E+00  0.1078020E+07  0.2957978E+01  0.6594330E+01  0.3097463E+01  0.2954898E+06  0.1393385E+01  0.6675720E-06  0.0000000E+00
  0.7199999E+00  0.8827878E+05 -0.1414410E+01  0.7606676E-02 -0.2985883E+01  0.8199502E+06 -0.2695645E+01  0.8236164E+00 -0.2496910E+01  0.5574973E+06 -0.1347830E+01  0.6322878E-04 -0.1282389E+01  0.2009014E+06 -0.1502729E+01  0.9962542E-01 -0.6376208E+00  0.1043000E+07  0.2937284E+01  0.3153573E+01  0.5139443E+00  0.3023715E+06  0.1370219E+01  0.3238900E-05  0.1012197E+01
  0.7399999E+00  0.9061855E+05 -0.1396910E+01  0.3959987E-01  0.8793636E-01  0.8539487E+06 -0.2681329E+01  0.1543927E+01  0.2638691E+01  0.5423889E+06 -0.1310837E+01  0.1003968E-03  0.1392975E+01  0.2019051E+06 -0.1495781E+01  0.3502197E-01  0.2130819E+01  0.1004462E+07  0.2914509E+01  0.1830301E+01 -0.2205053E-01  0.3053739E+06  0.1342422E+01  0.2231679E-05  0.2819842E+01
  0.7599999E+00  0.9256754E+05 -0.1378575E+01  0.8035409E-01 -0.1939708E+01  0.8868248E+06 -0.2667660E+01  0.2715909E+01 -0.2944290E+01  0.5217490E+06 -0.1267289E+01  0.1544446E-03  0.1441119E+01  0.2021178E+06 -0.1488711E+01  0.2220333E+00 -0.6828368E+00  0.9654461E+06  0.2891068E+01  0.7120027E+01 -0.3048002E+01  0.3056939E+06  0.1310948E+01  0.1449585E-05 -0.3141593E+01
  0.7800000E+00  0.9403613E+05 -0.1359460E+01  0.4000353E-01  0.7903666E-01  0.9185204E+06 -0.2654644E+01  0.2829264E+01  0.2093524E+01  0.4953849E+06 -0.1215236E+01  0.2398569E-03 -0.1585233E+01  0.2014888E+06 -0.1481612E+01  0.6760741E-01  0.2412566E+01  0.9257469E+06  0.2866692E+01  0.3720792E+01  0.3066961E+01  0.3041175E+06  0.1275939E+01  0.4704622E-05 -0.1892547E+01
  0.8000000E+00  0.9496332E+05 -0.1339645E+01  0.3006904E-01  0.1556384E+01  0.9494318E+06 -0.2642867E+01  0.1171572E+01 -0.4813739E+00  0.4625063E+06 -0.1151035E+01  0.1076060E-03 -0.1841528E+01  0.2000468E+06 -0.1474597E+01  0.3746331E-01 -0.1632572E+01  0.8853981E+06  0.2841465E+01  0.6617052E+01  0.6934084E+00  0.3004665E+06  0.1237067E+01  0.1705984E-05  0.2034444E+01
  0.8200000E+00  0.9528005E+05 -0.1319313E+01  0.6282086E-01 -0.2166263E+01  0.9786071E+06 -0.2631388E+01  0.4174992E+00  0.1231451E+01  0.4247919E+06 -0.1070925E+01  0.2606766E-03 -0.1961454E+01  0.1977589E+06 -0.1467822E+01  0.8197203E-01 -0.1390435E+01  0.8445951E+06  0.2815156E+01  0.4984704E+01  0.2183904E+00  0.2953037E+06  0.1195021E+01  0.8743170E-06  0.2034444E+01
  0.8399999E+00  0.9498050E+05 -0.1298674E+01  0.2984480E-01  0.8696833E-02  0.1006370E+07 -0.2620373E+01  0.6452733E+00 -0.1453172E+01  0.3826909E+06 -0.9671280E+00  0.7203556E-04 -0.2134358E+01  0.1946232E+06 -0.1461440E+01  0.1634557E+00  0.2163027E+01  0.8021425E+06  0.2785560E+01  0.4895044E+00  0.7201971E+00  0.2891583E+06  0.1149169E+01  0.2002716E-05  0.2214298E+01
  0.8600000E+00  0.9397757E+05 -0.1277862E+01  0.1023882E+00  0.1656049E+01  0.1032574E+07 -0.2610095E+01  0.1817059E+01  0.3887607E-01  0.3380659E+06 -0.8273954E+00  0.8771008E-04 -0.2028620E+01  0.1906719E+06 -0.1455627E+01  0.1958815E+00  0.3087229E+01  0.7614671E+06  0.2756734E+01  0.2495349E+01  0.1104969E+01  0.2837906E+06  0.1106245E+01  0.2319762E-05 -0.7853982E+00
  0.8799999E+00  0.9221540E+05 -0.1257075E+01  0.1357977E+00 -0.2388066E+01  0.1057291E+07 -0.2600572E+01  0.4839520E+00 -0.1109029E+01  0.2946366E+06 -0.6322681E+00  0.1166431E-03  0.1185848E+01  0.1858863E+06 -0.1450555E+01  0.1195408E+00  0.2065698E+01  0.7216961E+06  0.2727365E+01  0.3410096E+01  0.6212623E+00  0.2797816E+06  0.1068600E+01  0.1678467E-05 -0.1570796E+01
  0.9000000E+00  0.8965197E+05 -0.1236595E+01  0.1769338E-01  0.8300053E+00  0.1080620E+07 -0.2591971E+01  0.1588485E+01  0.2615921E+01  0.2593543E+06 -0.3550668E+00  0.2964528E-03 -0.1271762E+01  0.1803580E+06 -0.1446473E+01  0.4321111E-01  0.2328370E+01  0.6822838E+06  0.2697124E+01  0.5022417E+01  0.5836230E+00  0.2758225E+06  0.1035686E+01  0.1919233E-05 -0.2034444E+01
  0.9200000E+00  0.8622558E+05 -0.1216850E+01  0.2288979E+00 -0.1249215E+01  0.1101969E+07 -0.2583744E+01  0.1617772E+01 -0.2733606E+01  0.2448027E+06  0.6090276E-02  0.1337676E-03  0.1706296E+01  0.1740765E+06 -0.1443669E+01  0.2827436E+00 -0.2760909E+01  0.6437084E+06  0.2665917E+01  0.4309969E+01  0.2541851E+01  0.2727751E+06  0.1012481E+01  0.9809411E-06 -0.2034444E+01
  0.9400000E+00  0.8197512E+05 -0.1198360E+01  0.1879200E+00  0.1570882E+01  0.1121578E+07 -0.2575979E+01  0.8611305E+00 -0.2276160E+00  0.2622067E+06  0.3957334E+00  0.9942431E-04 -0.1658729E+01  0.1670669E+06 -0.1442479E+01  0.2094284E+00  0.4515558E+00  0.6054452E+06  0.2630040E+01  0.4831402E+01 -0.3058964E+01  0.2712901E+06  0.1000434E+01  0.2004532E-05  0.2034444E+01
  0.9599999E+00  0.7684541E+05 -0.1181715E+01  0.4691610E-01 -0.2727220E+01  0.1139391E+07 -0.2568860E+01  0.1338054E+01  0.5827808E+00  0.3132732E+06  0.7269445E+00  0.1018791E-03 -0.3787328E+00  0.1594283E+06 -0.1443243E+01  0.1550609E+00 -0.1712747E+01  0.5693251E+06  0.2596383E+01  0.3005084E+01  0.1187647E+00  0.2719375E+06  0.1010462E+01  0.9155273E-06 -0.1570796E+01
  0.9799999E+00  0.7081779E+05 -0.1167846E+01  0.1104801E+00  0.1264412E+01  0.1155373E+07 -0.2562317E+01  0.1294326E+01  0.2314378E+01  0.3907140E+06  0.9703880E+00  0.3645330E-03  0.8020295E+00  0.1511583E+06 -0.1446405E+01  0.1259344E+00 -0.2792313E+01  0.5348479E+06  0.2562607E+01  0.5422270E+00 -0.2786147E+01  0.2756095E+06  0.1043849E+01  0.9346007E-06  0.0000000E+00
  0.9999999E+00  0.6389776E+05 -0.1158137E+01  0.4606048E-01 -0.1551208E+00  0.1169760E+07 -0.2556600E+01  0.2208656E+01 -0.1868935E+01  0.4872197E+06  0.1144513E+01  0.1505470E-03 -0.1375920E+01  0.1423909E+06 -0.1452469E+01  0.1761596E+00  0.1111153E+01  0.5016061E+06  0.2528264E+01  0.8723232E+01 -0.2999287E+01  0.2821805E+06  0.1097790E+01  0.1066240E-05  0.1107149E+01
  0.1020000E+01  0.5607859E+05 -0.1155421E+01  0.3461972E-01 -0.2906182E+01  0.1182054E+07 -0.2551250E+01  0.1961006E+01 -0.2268273E+01  0.5968139E+06  0.1271332E+01  0.1616482E-03 -0.1934795E+01  0.1331471E+06 -0.1462232E+01  0.2444745E+00  0.2597976E+01  0.4692828E+06  0.2491982E+01  0.5169365E+01 -0.2896068E+01  0.2910272E+06  0.1165980E+01  0.2480030E-05  0.1768192E+01
  0.1040000E+01  0.4741825E+05 -0.1164456E+01  0.3033196E-01  0.2491382E+01  0.1192335E+07 -0.2546341E+01  0.1767995E+01 -0.1529655E+01  0.7164556E+06  0.1367914E+01  0.1773498E-03  0.1929218E+01  0.1235181E+06 -0.1476637E+01  0.3093247E+00 -0.1966700E+01  0.4387692E+06  0.2451111E+01  0.7114656E+01 -0.1965351E+00  0.3057118E+06  0.1249506E+01  0.7013235E-06  0.7853982E+00
  0.1060000E+01  0.3801815E+05 -0.1195302E+01  0.6905361E-01 -0.2044965E+01  0.1200693E+07 -0.2541936E+01  0.1719584E+01  0.2805518E+01  0.8441606E+06  0.1444569E+01  0.3618996E-03 -0.1241059E+01  0.1135803E+06 -0.1496807E+01  0.2289434E+00  0.7254747E+00  0.4098070E+06  0.2412219E+01  0.3583749E+01  0.3113038E+01  0.3282901E+06  0.1348450E+01  0.1429621E-05 -0.2356194E+01
  0.1080000E+01  0.2802363E+05 -0.1274118E+01  0.1841448E-01  0.4495894E+00  0.1207072E+07 -0.2538015E+01  0.2195230E+01 -0.4465384E+00  0.9784306E+06  0.1507581E+01  0.5872805E-04 -0.1354257E+01  0.1034488E+06 -0.1524447E+01  0.1820845E+00 -0.5338199E+00  0.3825627E+06  0.2373626E+01  0.6732590E+01 -0.2851337E+01  0.3597958E+06  0.1451954E+01  0.1029968E-05  0.1570796E+01
  0.1100000E+01  0.1798365E+05 -0.1488532E+01  0.1044778E+00  0.1585356E+01  0.1211460E+07 -0.2534571E+01  0.9195358E+00 -0.3812144E+00  0.1118089E+07  0.1560879E+01  0.2047307E-03 -0.1938921E+01  0.9319250E+05 -0.1561827E+01  0.2344778E+00  0.2349169E+01  0.3570181E+06  0.2335674E+01  0.8263000E+01  0.3341435E+00  0.4022482E+06  0.1553142E+01  0.0000000E+00  0.0000000E+00
  0.1120000E+01  0.1078206E+05 -0.2183158E+01  0.3013432E-01 -0.7548159E+00  0.1214000E+07 -0.2531725E+01  0.9871921E+00  0.8992030E+00  0.1262449E+07  0.1607055E+01  0.2520918E-03  0.1095804E+01  0.8300400E+05 -0.1612111E+01  0.2041674E+00  0.1531468E+01  0.3327533E+06  0.2296803E+01  0.2071740E+01  0.3026687E+01  0.4548260E+06  0.1645181E+01  0.1068115E-05 -0.1570796E+01
  0.1140000E+01  0.1485471E+05  0.3113660E+01  0.1189421E+00  0.1630263E+01  0.1214436E+07 -0.2529252E+01  0.1859812E+01 -0.2061283E+00  0.1410076E+07  0.1647699E+01  0.4132430E-03 -0.1481806E+01  0.7300686E+05 -0.1680394E+01  0.1159431E+00  0.6540968E+00  0.3096057E+06  0.2253652E+01  0.3782706E+01 -0.8233674E+00  0.5133662E+06  0.1722634E+01  0.5435944E-06 -0.1570796E+01
  0.1160000E+01  0.2629515E+05  0.2764006E+01  0.8443838E-02  0.4703270E+00  0.1212783E+07 -0.2527189E+01  0.3003264E+01  0.8030503E+00  0.1560029E+07  0.1683956E+01  0.2661445E-03  0.9611661E+00  0.6346843E+05 -0.1773702E+01  0.3845495E+00  0.2765206E+00  0.2880742E+06  0.2209571E+01  0.4328135E+01 -0.7040805E+00  0.5822667E+06  0.1791242E+01  0.0000000E+00  0.0000000E+00
  0.1180000E+01  0.3972448E+05  0.2644840E+01  0.8648928E-01 -0.2129767E+01  0.1209093E+07 -0.2525514E+01  0.1138425E+01  0.1229842E+01  0.1711608E+07  0.1716682E+01  0.1414050E-03 -0.2616295E+01  0.5470358E+05 -0.1902498E+01  0.2200378E+00 -0.1922989E+00  0.2687709E+06  0.2161628E+01  0.5331526E+00  0.9840348E+00  0.6610472E+06  0.1847090E+01  0.6290817E-06  0.1107149E+01
  0.1200000E+01  0.5410594E+05  0.2596274E+01  0.1632225E+00  0.1646732E+01  0.1203394E+07 -0.2524269E+01  0.1991980E+01  0.9527351E+00  0.1863994E+07  0.1746480E+01  0.6485928E-03  0.2246465E+01  0.4727630E+05 -0.2078768E+01  0.9341030E-01 -0.2866244E+01  0.2502539E+06  0.2117218E+01  0.3448234E+01  0.2766240E+01  0.7492748E+06  0.1896036E+01  0.6397442E-06  0.1107149E+01
  0.1220000E+01  0.6914230E+05  0.2576526E+01  0.1289621E-01 -0.1491139E+01  0.1195678E+07 -0.2523440E+01  0.1793897E+01  0.2729167E-01  0.2016394E+07  0.1773794E+01  0.1970823E-03  0.3037416E+01  0.4191188E+05 -0.2311903E+01  0.1881925E+00 -0.1001860E+01  0.2329987E+06  0.2074309E+01  0.5450855E+01  0.2905566E+01  0.8466053E+06  0.1936943E+01  0.5817413E-06 -0.1570796E+01
  0.1240000E+01  0.8468619E+05  0.2570941E+01  0.1672814E+00  0.1519026E+01  0.1185962E+07 -0.2523032E+01  0.7152157E+00 -0.2229742E+01  0.2168037E+07  0.1798957E+01  0.7224203E-03 -0.1018639E+01  0.3946261E+05 -0.2592886E+01  0.2685824E+00 -0.2108532E+01  0.2168651E+06  0.2033550E+01  0.1192714E+01  0.1788350E+01  0.9527912E+06  0.1970926E+01  0.6094754E-06 -0.1325818E+01
  0.1260000E+01  0.1006285E+06  0.2573197E+01  0.8855986E-01 -0.1848434E+01  0.1174365E+07 -0.2523092E+01  0.1173984E+01 -0.3107217E+01  0.2318449E+07  0.1822265E+01  0.2575788E-03  0.5340217E+00  0.4041495E+05 -0.2882073E+01  0.1342510E+00 -0.1096636E+01  0.2018321E+06  0.1987814E+01  0.1618764E+01 -0.2437723E+01  0.1063918E+07  0.1998506E+01  0.6008148E-06  0.1570796E+01
  0.1280000E+01  0.1168908E+06  0.2580361E+01  0.2452224E+00 -0.1342481E+01  0.1160712E+07 -0.2523501E+01  0.2310337E+00  0.1223033E+01  0.2466304E+07  0.1843864E+01  0.1001020E-03 -0.3415040E+00  0.4448643E+05 -0.3136952E+01  0.1842091E+00 -0.3866602E+00  0.1882550E+06  0.1935782E+01  0.3951720E+01 -0.2633619E+01  0.1174749E+07  0.2018887E+01  0.1223085E-05 -0.1633215E+01
  0.1300000E+01  0.1333707E+06  0.2590529E+01  0.3485672E-01  0.1240216E+01  0.1145106E+07 -0.2524320E+01  0.7829441E+00  0.3288105E+00  0.2611154E+07  0.1863942E+01  0.3965755E-03  0.1473716E+01  0.5083851E+05  0.2947012E+01  0.2143894E+00  0.1512992E+01  0.1757253E+06  0.1883811E+01  0.2992621E+01 -0.2962548E+01  0.1291570E+07  0.2036149E+01  0.3465281E-06  0.2034444E+01
  0.1320000E+01  0.1499783E+06  0.2602566E+01  0.1979460E+00 -0.1570338E+01  0.1127595E+07 -0.2525523E+01  0.1943195E+01  0.2548180E+01  0.2752340E+07  0.1882640E+01  0.9657280E-04  0.1818927E+01  0.5864354E+05  0.2797621E+01  0.2924704E+00  0.1810922E+01  0.1648130E+06  0.1830115E+01  0.2506390E+01  0.3760721E+00  0.1414096E+07  0.2050108E+01  0.3147125E-06  0.0000000E+00
  0.1340000E+01  0.1666373E+06  0.2615852E+01  0.1440137E+00  0.1493323E+01  0.1108217E+07 -0.2527141E+01  0.2328700E+01  0.2524394E+01  0.2889182E+07  0.1900070E+01  0.5099887E-03  0.6761679E+00  0.6730204E+05  0.2686339E+01  0.1756936E+00 -0.3963735E+00  0.1541019E+06  0.1779459E+01  0.3522459E+01 -0.1844431E+00  0.1540823E+07  0.2061935E+01  0.3219671E-06  0.1446441E+01
  0.1360000E+01  0.1832658E+06  0.2629939E+01  0.1346541E+00  0.1132382E+01  0.1087016E+07 -0.2529177E+01  0.6195912E+00  0.2077097E+00  0.3021037E+07  0.1916329E+01  0.6672696E-03 -0.2896124E+00  0.7641648E+05  0.2601766E+01  0.3917152E+00  0.3703139E+00  0.1439500E+06  0.1731130E+01  0.6164206E+01  0.2759959E+01  0.1671604E+07  0.2071616E+01  0.3342285E-06 -0.1325818E+01
  0.1380000E+01  0.1997784E+06  0.2644536E+01  0.7533659E-01  0.2614652E+00  0.1064031E+07 -0.2531643E+01  0.4209858E+00 -0.1781415E+01  0.3147321E+07  0.1931495E+01  0.7995988E-03 -0.7073835E+00  0.8576464E+05  0.2535674E+01  0.6085945E-01  0.1016222E+01  0.1342032E+06  0.1685661E+01  0.1720025E+01 -0.1663895E+01  0.1806539E+07  0.2079499E+01  0.6714732E-06 -0.1370398E+01
  0.1400000E+01  0.2160893E+06  0.2659465E+01  0.5548759E-01  0.4993813E+00  0.1039339E+07 -0.2534567E+01  0.7769639E+00  0.1502936E+01  0.3267435E+07  0.1945648E+01  0.5361356E-03 -0.2674176E+01  0.9518125E+05  0.2482765E+01  0.6450106E-01  0.5354107E-01  0.1249795E+06  0.1640021E+01  0.4855094E+01 -0.1780562E+01  0.1944732E+07  0.2085890E+01  0.1994893E-06 -0.3141593E+01
  0.1420000E+01  0.2321115E+06  0.2674641E+01  0.1073673E+00 -0.3125988E+01  0.1013022E+07 -0.2537928E+01  0.1283749E+01  0.1289970E+01  0.3380893E+07  0.1958858E+01  0.1519591E-03  0.1570108E+01  0.1045595E+06  0.2439505E+01  0.9008162E-01 -0.6103444E+00  0.1174717E+06  0.1584005E+01  0.3210256E+01  0.2507299E+01  0.2078586E+07  0.2089001E+01  0.3579985E-06 -0.1901892E+01
  0.1440000E+01  0.2477608E+06  0.2689998E+01  0.2198598E-01 -0.1583539E+01  0.9851046E+06 -0.2541764E+01  0.1575991E+01 -0.3077154E+01  0.3486967E+07  0.1971161E+01  0.2753414E-03 -0.2489001E+01  0.1139058E+06  0.2402919E+01  0.1631764E+00  0.2948733E+00  0.1109384E+06  0.1525351E+01  0.1517147E+01 -0.2178841E+01  0.2210001E+07  0.2089573E+01  0.2145767E-06  0.0000000E+00
  0.1460000E+01  0.2629472E+06  0.2705438E+01  0.3451410E-01 -0.1648735E+01  0.9556630E+06 -0.2546090E+01  0.1342138E+01  0.4902477E+00  0.3585244E+07  0.1982611E+01  0.6502144E-03  0.2555721E+01  0.1231028E+06  0.2371624E+01  0.5741724E-01  0.2132964E+01  0.1048916E+06  0.1467276E+01  0.3048968E+01 -0.9181460E+00  0.2342448E+07  0.2089607E+01  0.7083141E-06 -0.1756144E+01
  0.1480000E+01  0.2775813E+06  0.2720919E+01  0.8768576E-01  0.7608063E+00  0.9247909E+06 -0.2550922E+01  0.2509741E+01 -0.6189712E+00  0.3675297E+07  0.1993265E+01  0.2321680E-03 -0.1982336E+01  0.1321556E+06  0.2344075E+01  0.1976879E+00  0.7645236E-01  0.9940077E+05  0.1409875E+01  0.1579949E+01 -0.1994200E+00  0.2475911E+07  0.2088945E+01  0.1818596E-06 -0.1815775E+01
  0.1500000E+01  0.2915791E+06  0.2736420E+01  0.9345304E-01  0.4222711E+00  0.8925483E+06 -0.2556299E+01  0.7097962E+00  0.2089413E+01  0.3756644E+07  0.2003148E+01  0.1073832E-02 -0.1927835E+01  0.1410175E+06  0.2319564E+01  0.1945681E+00  0.2931606E+01  0.9382094E+05  0.1354194E+01  0.8666534E+00  0.2267634E+01  0.2609330E+07  0.2087826E+01  0.4217318E-06 -0.2129396E+01
  0.1520000E+01  0.3048504E+06  0.2751938E+01  0.1183615E+00  0.2656449E+01  0.8590455E+06 -0.2562257E+01  0.1502456E+01  0.2338448E+01  0.3828879E+07  0.2012307E+01  0.1838535E-03 -0.1475439E+01  0.1496617E+06  0.2297381E+01  0.9765591E-02  0.9473083E+00  0.8824491E+05  0.1300126E+01  0.5488408E+01 -0.2881474E+01  0.2742835E+07  0.2086338E+01  0.1145998E-05  0.1249046E+01
  0.1540000E+01  0.3173140E+06  0.2767484E+01  0.4613857E-01 -0.2690280E+01  0.8243711E+06 -0.2568855E+01  0.6958334E+00 -0.1465093E+01  0.3891687E+07  0.2020768E+01  0.1372638E-02 -0.2786049E+01  0.1580884E+06  0.2276886E+01  0.8218490E-01 -0.4488209E+00  0.8257698E+05  0.1247257E+01  0.8706966E+01  0.8143105E-02  0.2876645E+07  0.2084535E+01  0.4105025E-06 -0.2034444E+01
  0.1560000E+01  0.3288790E+06  0.2783063E+01  0.3360826E-01 -0.7507171E+00  0.7886284E+06 -0.2576143E+01  0.4281295E+00 -0.2915851E+01  0.3944668E+07  0.2028556E+01  0.7494327E-03 -0.1604152E+01  0.1662756E+06  0.2257810E+01  0.1739523E-01 -0.2668640E+01  0.7677839E+05  0.1194852E+01  0.2518115E+01 -0.5296885E+00  0.3010767E+07  0.2082655E+01  0.5655950E-06  0.1405648E+01