VARIABLES="w (rad/s)"  
"abs(F   1   1)" "angle(F   1   1)"
"abs(F   1   2)" "angle(F   1   2)"
"abs(F   1   3)" "angle(F   1   3)"
"abs(F   1   4)" "angle(F   1   4)"
"abs(F   1   5)" "angle(F   1   5)"
"abs(F   1   6)" "angle(F   1   6)"
"abs(F   2   1)" "angle(F   2   1)"
"abs(F   2   2)" "angle(F   2   2)"
"abs(F   2   3)" "angle(F   2   3)"
"abs(F   2   4)" "angle(F   2   4)"
"abs(F   2   5)" "angle(F   2   5)"
"abs(F   2   6)" "angle(F   2   6)"
Zone t="Excitation force - beta =   0.000 deg",I=   260,F=POINT
  0.2000000E-01  0.3755126E+03 -0.1570791E+01  0.4041463E+00 -0.3141590E+01  0.2800154E+07 -0.1198238E-06  0.2601309E+00 -0.5543851E-04  0.3933177E+04 -0.1570884E+01  0.7227629E-04 -0.1602757E-02  0.6970222E+03 -0.1570983E+01  0.1006479E+01 -0.6077256E-05  0.2722693E+06 -0.1029168E-06  0.3595820E+00 -0.2691436E-03  0.3459331E+04 -0.1570305E+01  0.9268522E-06 -0.1570796E+01
  0.4000000E-01  0.1501757E+04 -0.1570777E+01  0.1831441E+00 -0.3141573E+01  0.2797673E+07 -0.1919032E-05  0.1691601E+00  0.3140883E+01  0.1572365E+05 -0.1570802E+01  0.7873296E-04 -0.3108755E+01  0.2782820E+04 -0.1570807E+01  0.6181208E+00 -0.3141582E+01  0.2580236E+06 -0.1846311E-05  0.3201887E+02 -0.5485161E-05  0.1377763E+05 -0.1570809E+01  0.4022122E-05 -0.1570796E+01
  0.6000000E-01  0.3377835E+04 -0.1570800E+01  0.3864428E+00 -0.1354384E-03  0.2793494E+07 -0.9680993E-05  0.4870870E-01 -0.5129458E-02  0.3534566E+05 -0.1570799E+01  0.7607658E-04  0.3113297E+01  0.6241752E+04 -0.1570781E+01  0.6661938E+00 -0.3141396E+01  0.2345409E+06 -0.9463188E-05  0.5347580E+01 -0.3141360E+01  0.3078035E+05 -0.1570951E+01  0.1875163E-05 -0.1570796E+01
  0.8000000E-01  0.6002276E+04 -0.1570794E+01  0.5183677E-01 -0.3140492E+01  0.2787622E+07 -0.3041519E-04  0.8675867E+01 -0.2016738E-04  0.6275004E+05 -0.1570796E+01  0.8071071E-04 -0.4132171E-01  0.1104755E+05 -0.1570768E+01  0.5591861E-01 -0.4436066E-02  0.2021148E+06 -0.2997286E-04  0.6018843E+02  0.6108239E-04  0.5417184E+05 -0.1571029E+01  0.1217842E-04 -0.1570796E+01
  0.9999999E-01  0.9373137E+04 -0.1570800E+01  0.1181527E-02  0.1134973E+00  0.2779988E+07 -0.7369497E-04  0.6835675E+01 -0.1781545E-03  0.9787847E+05 -0.1570794E+01  0.1464829E-03 -0.3106604E-01  0.1716449E+05 -0.1570802E+01  0.4648356E+00  0.3140551E+01  0.1612529E+06 -0.7291968E-04  0.1999644E+02 -0.9591884E-04  0.8356748E+05 -0.1571015E+01  0.5602837E-06  0.1570796E+01
  0.1200000E+00  0.1348750E+05 -0.1570798E+01  0.3883021E-01 -0.3137586E+01  0.2770570E+07 -0.1515331E-03  0.3912295E+01 -0.3120558E-04  0.1406525E+06 -0.1570797E+01  0.5185912E-04  0.2209970E+01  0.2454747E+05 -0.1570805E+01  0.6607595E+00  0.3138583E+01  0.1125498E+06 -0.1502802E-03  0.1700866E+02 -0.4916213E-04  0.1184916E+06 -0.1570983E+01  0.1707077E-05  0.1570796E+01
  0.1400000E+00  0.1834253E+05 -0.1570797E+01  0.5617349E+00  0.3141323E+01  0.2759305E+07 -0.2782157E-03  0.1009701E+02 -0.2885486E-03  0.1909696E+06 -0.1570794E+01  0.9773954E-04 -0.2507207E-01  0.3314038E+05 -0.1570802E+01  0.1112201E+01 -0.2056268E-03  0.5667364E+05 -0.2727986E-03  0.1306792E+02 -0.8525034E-03  0.1583549E+06 -0.1570953E+01  0.1873971E-05  0.1570796E+01
  0.1600000E+00  0.2393362E+05 -0.1570781E+01  0.3626339E-01  0.3140074E+01  0.2746075E+07 -0.4702704E-03  0.1205201E+02 -0.3141461E+01  0.2486974E+06 -0.1570783E+01  0.8746790E-04 -0.5310386E+00  0.4288274E+05 -0.1570789E+01  0.3165383E+00  0.3132112E+01  0.5523454E+04  0.3141068E+01  0.2589435E+02 -0.3140543E+01  0.2025784E+06 -0.1570928E+01  0.1373291E-04  0.1570796E+01
  0.1800000E+00  0.3025708E+05 -0.1570770E+01  0.3867076E+00 -0.3141538E+01  0.2730942E+07 -0.7467984E-03  0.7158916E+01 -0.1483597E-02  0.3137319E+06 -0.1570767E+01  0.8491922E-04 -0.1495165E+00  0.5370264E+05 -0.1570767E+01  0.8999420E+00 -0.3140452E+01  0.7317809E+05  0.3140844E+01  0.1041847E+02  0.3140108E+01  0.2504875E+06 -0.1570983E+01  0.2575874E-04 -0.1570796E+01
  0.2000000E+00  0.3730775E+05 -0.1570754E+01  0.5467854E+00 -0.7624323E-03  0.2713806E+07 -0.1129337E-02  0.1163776E+01  0.4938792E-02  0.3859116E+06 -0.1570755E+01  0.8644186E-04 -0.2956572E+01  0.6552414E+05 -0.1570754E+01  0.1221689E+01  0.3141440E+01  0.1453137E+06  0.3140462E+01  0.1133104E+02 -0.3137142E+01  0.3014177E+06 -0.1570935E+01  0.1163482E-04  0.1570796E+01
  0.2200000E+00  0.4507923E+05 -0.1570714E+01  0.5364187E+00  0.1977971E-02  0.2694764E+07 -0.1643234E-02  0.3101710E+01 -0.3580287E-02  0.4651133E+06 -0.1570712E+01  0.1290777E-03  0.2563620E+01  0.7826375E+05 -0.1570720E+01  0.4602302E+00 -0.1124449E-02  0.2208914E+06  0.3139947E+01  0.2029966E+02  0.3141140E+01  0.3546964E+06 -0.1570940E+01  0.5826950E-05  0.1570796E+01
  0.2400000E+00  0.5356477E+05 -0.1570660E+01  0.2935102E+00 -0.1523356E-02  0.2673366E+07 -0.2316787E-02  0.6714194E+01 -0.1103861E-02  0.5510604E+06 -0.1570660E+01  0.2254152E-03  0.6534650E+00  0.9183406E+05 -0.1570665E+01  0.1016048E+01 -0.1695846E-02  0.2988657E+06  0.3139280E+01  0.2734042E+02 -0.3141213E+01  0.4096783E+06 -0.1570909E+01  0.6561279E-05 -0.1570796E+01
  0.2600000E+00  0.6275691E+05 -0.1570583E+01  0.4512266E+00 -0.3141128E+01  0.2649802E+07 -0.3183546E-02  0.1188059E+02  0.9416010E-03  0.6436018E+06 -0.1570582E+01  0.1720743E-03 -0.1310445E+01  0.1061403E+06 -0.1570583E+01  0.7055425E-01  0.3109414E+01  0.3781468E+06  0.3138395E+01  0.5935891E+00  0.3440861E-01  0.4657010E+06 -0.1570831E+01  0.9288788E-05 -0.1570796E+01
  0.2800000E+00  0.7265277E+05 -0.1570472E+01  0.9615730E-02 -0.2967444E+01  0.2624225E+07 -0.4282286E-02  0.9226795E+01 -0.4987940E-03  0.7425910E+06 -0.1570473E+01  0.2412929E-04  0.1812660E+00  0.1210879E+06 -0.1570480E+01  0.9329669E-01 -0.3863297E-01  0.4576371E+06  0.3137302E+01  0.1147900E+02 -0.4703643E-02  0.5222329E+06 -0.1570735E+01  0.1743317E-04  0.1570796E+01
  0.3000000E+00  0.8323432E+05 -0.1570323E+01  0.1847388E+00 -0.2933472E-02  0.2596259E+07 -0.5657542E-02  0.8390281E+01  0.3136122E+01  0.8476802E+06 -0.1570319E+01  0.1209164E-03 -0.2012454E+01  0.1365852E+06 -0.1570337E+01  0.5989397E+00 -0.3136903E+01  0.5362504E+06  0.3135932E+01  0.1541226E+02 -0.8395062E-02  0.5789059E+06 -0.1570539E+01  0.3480912E-05 -0.1570796E+01
  0.3200000E+00  0.9449966E+05 -0.1570119E+01  0.7010292E+00 -0.2414425E-02  0.2565964E+07 -0.7359695E-02  0.8246637E+01  0.2596928E-02  0.9586571E+06 -0.1570120E+01  0.3161239E-03 -0.8180631E+00  0.1525246E+06 -0.1570130E+01  0.2658625E+00  0.3133611E+01  0.6130361E+06  0.3134232E+01  0.4131561E+01  0.3138619E+01  0.6351310E+06 -0.1570329E+01  0.2700806E-04  0.1570796E+01
  0.3400000E+00  0.1064325E+06 -0.1569855E+01  0.3348911E+00 -0.2856519E-02  0.2533660E+07 -0.9450334E-02  0.5457748E-01  0.2998485E+01  0.1075381E+07 -0.1569855E+01  0.3489928E-03  0.1541731E+01  0.1688172E+06 -0.1569869E+01  0.5297483E+00 -0.4795865E-03  0.6868517E+06  0.3132147E+01  0.1088882E+02  0.3128566E+01  0.6908907E+06 -0.1570022E+01  0.3940582E-04 -0.1570796E+01
  0.3600000E+00  0.1190213E+06 -0.1569518E+01  0.2859781E-01 -0.7009432E-02  0.2498772E+07 -0.1198733E-01  0.8676746E+01  0.3134230E+01  0.1197333E+07 -0.1569518E+01  0.2519210E-03  0.1544222E+01  0.1853467E+06 -0.1569538E+01  0.3458214E+00  0.1174757E-01  0.7570181E+06  0.3129611E+01  0.1130822E+00 -0.2686058E+01  0.7456321E+06 -0.1569605E+01  0.3814697E-05 -0.1570796E+01
  0.3800000E+00  0.1322544E+06 -0.1569094E+01  0.4817588E-01 -0.4118131E-01  0.2461997E+07 -0.1505481E-01  0.8200399E+01  0.3132898E+01  0.1324476E+07 -0.1569094E+01  0.3277049E-03 -0.1651554E+01  0.2020341E+06 -0.1569112E+01  0.1353561E+00  0.3066251E+01  0.8223746E+06  0.3126546E+01  0.3622828E+01 -0.3089416E+01  0.7997148E+06 -0.1569123E+01  0.4541400E-04 -0.1569799E+01
  0.4000000E+00  0.1461178E+06 -0.1568567E+01  0.1174341E+00 -0.3082220E-01  0.2422789E+07 -0.1871328E-01  0.5215661E+01  0.1095485E-02  0.1456203E+07 -0.1568568E+01  0.4256779E-03  0.1269168E+01  0.2187638E+06 -0.1568590E+01  0.5821321E+00 -0.3126783E+01  0.8826232E+06  0.3122892E+01  0.2792439E+00  0.2974749E+01  0.8527363E+06 -0.1568587E+01  0.8773804E-05 -0.1570796E+01
  0.4200000E+00  0.1605788E+06 -0.1567924E+01  0.6921355E+00  0.7630758E-02  0.2381787E+07 -0.2305832E-01  0.3104599E+01  0.5042126E-01  0.1592442E+07 -0.1567925E+01  0.3125818E-03  0.1822695E+01  0.2354518E+06 -0.1567946E+01  0.6775451E-01  0.8040781E+00  0.9367380E+06  0.3118539E+01  0.1338544E+02 -0.3128413E+01  0.9051941E+06 -0.1567889E+01  0.5016327E-05  0.1570796E+01
  0.4400000E+00  0.1756403E+06 -0.1567151E+01  0.9529284E-01 -0.3054867E+01  0.2339164E+07 -0.2816219E-01  0.1497836E+01  0.3065344E+01  0.1732792E+07 -0.1567151E+01  0.3799953E-04 -0.6675032E+00  0.2519982E+06 -0.1567165E+01  0.7651583E+00 -0.3077273E-01  0.9846227E+06  0.3113440E+01  0.1299000E+02 -0.3125451E+01  0.9570801E+06 -0.1567104E+01  0.4024536E-04 -0.1566886E+01
  0.4600000E+00  0.1912528E+06 -0.1566233E+01  0.6920356E-01  0.3054324E+01  0.2294087E+07 -0.3409533E-01  0.2951205E+01  0.3105687E+01  0.1876387E+07 -0.1566235E+01  0.5306230E-03 -0.1566403E+01  0.2683207E+06 -0.1566232E+01  0.3910656E+00  0.3000879E+01  0.1025915E+07  0.3107514E+01  0.2259515E+01 -0.3098020E-01  0.1008883E+07 -0.1566142E+01  0.5458876E-04  0.1574814E+01
  0.4800000E+00  0.2074087E+06 -0.1565161E+01  0.5299579E+00 -0.2469460E-01  0.2248042E+07 -0.4100486E-01  0.7190174E+01  0.3120993E+01  0.2023470E+07 -0.1565161E+01  0.3943903E-03  0.1802796E+01  0.2843242E+06 -0.1565149E+01  0.6813759E+00  0.3369838E-01  0.1059644E+07  0.3100606E+01  0.2382927E+01  0.2265596E+00  0.1061140E+07 -0.1565032E+01  0.1011657E-03 -0.1570796E+01
  0.5000000E+00  0.2240755E+06 -0.1563924E+01  0.7921103E-01  0.9259085E-01  0.2200341E+07 -0.4890247E-01  0.1180566E+02 -0.1587610E-01  0.2173103E+07 -0.1563924E+01  0.8796262E-04  0.1632601E+01  0.2999098E+06 -0.1563900E+01  0.2700226E+00  0.3100877E+01  0.1086856E+07  0.3092714E+01  0.4914674E+01 -0.3058694E+01  0.1113770E+07 -0.1563810E+01  0.7635213E-05  0.1609839E+01
  0.5200000E+00  0.2411902E+06 -0.1562507E+01  0.6174817E+00 -0.3766266E-01  0.2151556E+07 -0.5787392E-01  0.2262450E+01  0.3750436E-01  0.2324883E+07 -0.1562507E+01  0.4137489E-03 -0.1880961E+01  0.3150229E+06 -0.1562482E+01  0.5551540E+00  0.3028020E+01  0.1106572E+07  0.3083726E+01  0.7583823E+01  0.3118759E+01  0.1167986E+07 -0.1562434E+01  0.9613238E-05  0.1577244E+01
  0.5400000E+00  0.2587565E+06 -0.1560908E+01  0.1448823E+00 -0.1443149E-01  0.2102236E+07 -0.6799824E-01  0.9743184E+01  0.3103081E+01  0.2478541E+07 -0.1560907E+01  0.8938364E-03 -0.1597221E+01  0.3295743E+06 -0.1560890E+01  0.4279253E+00 -0.3045166E+01  0.1119533E+07  0.3073593E+01  0.4671712E+01  0.2211299E-01  0.1224004E+07 -0.1560861E+01  0.6052141E-04 -0.1564414E+01
  0.5600000E+00  0.2767090E+06 -0.1559112E+01  0.5276475E-01 -0.2714337E+01  0.2051998E+07 -0.7930930E-01  0.5891429E+01  0.3845815E-01  0.2633137E+07 -0.1559112E+01  0.1054945E-02 -0.1522254E+01  0.3434664E+06 -0.1559098E+01  0.8448840E-01  0.4071862E+00  0.1126065E+07  0.3062302E+01  0.2278167E+01 -0.3031328E+01  0.1281943E+07 -0.1559098E+01  0.1312256E-04  0.1570796E+01
  0.5800000E+00  0.2949680E+06 -0.1557123E+01  0.5462514E+00  0.1729479E-01  0.2001372E+07 -0.9181824E-01  0.1385304E+00  0.2142998E+01  0.2788029E+07 -0.1557122E+01  0.6681661E-03  0.1559134E+01  0.3566716E+06 -0.1557112E+01  0.5915909E+00 -0.1276988E+00  0.1126565E+07  0.3049830E+01  0.2016315E+01  0.1622248E+00  0.1342880E+07 -0.1557111E+01  0.1084785E-04 -0.1519784E+01
  0.6000000E+00  0.3135281E+06 -0.1554942E+01  0.2098275E+00 -0.6082332E-01  0.1950900E+07 -0.1056538E+00  0.8918592E+01  0.3085541E+01  0.2943001E+07 -0.1554942E+01  0.1746684E-03  0.1413077E+01  0.3690917E+06 -0.1554940E+01  0.2351368E+00  0.3028369E+01  0.1120189E+07  0.3035893E+01  0.1574714E+02 -0.3054571E+01  0.1407173E+07 -0.1554970E+01  0.5179999E-05  0.2764505E+01
  0.6199999E+00  0.3323074E+06 -0.1552573E+01  0.1693008E+00  0.2910228E+01  0.1900668E+07 -0.1207442E+00  0.5310957E+01 -0.3107378E+01  0.3097200E+07 -0.1552573E+01  0.2495192E-03 -0.1713346E+01  0.3806678E+06 -0.1552576E+01  0.1383724E+00  0.2381944E+01  0.1109391E+07  0.3020832E+01  0.6125692E+01 -0.2085889E+00  0.1474714E+07 -0.1552580E+01  0.7749978E-05 -0.4754797E+00
  0.6400000E+00  0.3512105E+06 -0.1550028E+01  0.2312685E+00  0.2151940E+00  0.1849926E+07 -0.1370689E+00  0.6878639E+00 -0.2358768E+01  0.3249075E+07 -0.1550028E+01  0.2571305E-03  0.1430745E+01  0.3913489E+06 -0.1550034E+01  0.4255533E+00  0.6202886E-01  0.1093867E+07  0.3004608E+01  0.1195332E+02  0.1634728E-01  0.1546225E+07 -0.1550004E+01  0.4350254E-04  0.1658599E+01
  0.6600000E+00  0.3701818E+06 -0.1547327E+01  0.7614941E-01 -0.7630690E+00  0.1800231E+07 -0.1547613E+00  0.5769436E+01  0.9249759E-01  0.3399005E+07 -0.1547327E+01  0.3956671E-03 -0.1153784E+01  0.4010857E+06 -0.1547333E+01  0.3279721E+00 -0.2838297E+00  0.1072696E+07  0.2986708E+01  0.2019194E+02 -0.9113803E-02  0.1622324E+07 -0.1547264E+01  0.2444650E-04 -0.1414114E+01
  0.6799999E+00  0.3891581E+06 -0.1544495E+01  0.4186731E+00 -0.5597788E-01  0.1751294E+07 -0.1737220E+00  0.3344212E+01  0.3137046E+01  0.3545817E+07 -0.1544494E+01  0.4847832E-03 -0.1704960E+01  0.4098311E+06 -0.1544501E+01  0.2264332E+00 -0.4302251E+00  0.1048492E+07  0.2967748E+01  0.1013826E+02 -0.3018256E+01  0.1702416E+07 -0.1544468E+01  0.4829406E-04 -0.1570796E+01
  0.7000000E+00  0.4080329E+06 -0.1541561E+01  0.2841771E+00 -0.5733772E+00  0.1702974E+07 -0.1939289E+00  0.2732366E+01 -0.1446107E+00  0.3688544E+07 -0.1541561E+01  0.1978880E-02  0.1579814E+01  0.4175010E+06 -0.1541568E+01  0.1353878E+00 -0.4590184E+00  0.1021349E+07  0.2947663E+01  0.1555662E+01  0.2897158E+01  0.1785852E+07 -0.1541593E+01  0.1527339E-04 -0.1527074E+01
  0.7199999E+00  0.4266929E+06 -0.1538567E+01  0.1344386E+00 -0.3114044E+01  0.1655078E+07 -0.2153394E+00  0.3916975E+01 -0.1283901E+00  0.3825732E+07 -0.1538568E+01  0.6222408E-03 -0.1605230E+01  0.4241237E+06 -0.1538574E+01  0.6184778E-01 -0.1679131E+01  0.9914439E+06  0.2926498E+01  0.6568179E+01  0.2419231E+00  0.1873678E+07 -0.1538640E+01  0.2188749E-04  0.1492286E+01
  0.7399999E+00  0.4450649E+06 -0.1535562E+01  0.2821245E+00  0.9687234E-02  0.1608608E+07 -0.2380421E+00  0.1369554E+01  0.5710112E+00  0.3957672E+07 -0.1535562E+01  0.3396011E-03 -0.1394768E+01  0.4296357E+06 -0.1535569E+01  0.1316806E+00  0.2904588E+01  0.9577166E+06  0.2903216E+01  0.2282258E+01 -0.3111551E+01  0.1965477E+07 -0.1535615E+01  0.1646397E-04  0.1817742E+01
  0.7599999E+00  0.4630674E+06 -0.1532598E+01  0.2860919E+00 -0.2873933E+01  0.1563232E+07 -0.2618937E+00  0.1023997E+01 -0.2655548E+01  0.4083130E+07 -0.1532597E+01  0.8560345E-03 -0.1328181E+01  0.4340310E+06 -0.1532605E+01  0.1700209E+00 -0.9584264E+00  0.9231919E+06  0.2879338E+01  0.1978164E+02 -0.3108221E+01  0.2059868E+07 -0.1532658E+01  0.8123066E-05 -0.2652740E+01
  0.7800000E+00  0.4805706E+06 -0.1529738E+01  0.5155910E-01  0.6316910E-01  0.1518957E+07 -0.2868789E+00  0.2673354E+01  0.1979099E+01  0.4201242E+07 -0.1529737E+01  0.6943392E-04 -0.6937081E+00  0.4372675E+06 -0.1529744E+01  0.3153065E+00  0.2988260E+01  0.8876761E+06  0.2854575E+01  0.1054514E+02  0.3117342E+01  0.2155945E+07 -0.1529793E+01  0.8598738E-05 -0.1296762E+01
  0.8000000E+00  0.4974706E+06 -0.1527049E+01  0.1231007E+00  0.2352065E+00  0.1475077E+07 -0.3129448E+00  0.7656592E+00 -0.2330063E+01  0.4310323E+07 -0.1527052E+01  0.1729862E-02 -0.1575045E+01  0.4393827E+06 -0.1527051E+01  0.3874027E-01 -0.1720472E+01  0.8512072E+06  0.2829009E+01  0.4488143E+01  0.1921889E+01  0.2253751E+07 -0.1527111E+01  0.2063113E-04  0.1515298E+01
  0.8200000E+00  0.5136623E+06 -0.1524622E+01  0.8863528E-01 -0.6640970E+00  0.1432814E+07 -0.3400621E+00  0.5556006E+01  0.3062628E+01  0.4411056E+07 -0.1524621E+01  0.2604423E-02 -0.1613575E+01  0.4403565E+06 -0.1524617E+01  0.2627888E+00 -0.3141965E+00  0.8139919E+06  0.2802400E+01  0.1498404E+01  0.8368000E+00  0.2352506E+07 -0.1524712E+01  0.3381284E-04 -0.1695502E+01
  0.8399999E+00  0.5290996E+06 -0.1522528E+01  0.9792451E-01  0.3078753E+01  0.1391811E+07 -0.3683126E+00  0.5138253E+01 -0.3000277E+01  0.4502308E+07 -0.1522526E+01  0.8326845E-03 -0.1743741E+01  0.4402012E+06 -0.1522525E+01  0.2529542E+00  0.2576709E+01  0.7748682E+06  0.2772438E+01  0.6388120E+01  0.3100253E+01  0.2451646E+07 -0.1522509E+01  0.2510192E-04 -0.1580674E+01
  0.8600000E+00  0.5436606E+06 -0.1520859E+01  0.6491075E+00  0.1588033E+00  0.1351896E+07 -0.3974969E+00  0.6828905E+00  0.3087574E+01  0.4583479E+07 -0.1520856E+01  0.2436308E-03 -0.2197320E+01  0.4389642E+06 -0.1520860E+01  0.2720833E+00  0.4519907E-01  0.7372299E+06  0.2743381E+01  0.6346822E+01  0.2789442E+01  0.2548538E+07 -0.1520886E+01  0.2723705E-05  0.9244937E+00
  0.8799999E+00  0.5572569E+06 -0.1519706E+01  0.6659814E+00 -0.3007436E+01  0.1312934E+07 -0.4276490E+00  0.2168183E+01 -0.2946879E+01  0.4653994E+07 -0.1519704E+01  0.1010750E-02  0.1597645E+01  0.4366433E+06 -0.1519709E+01  0.2294903E+00  0.4869465E+00  0.7002302E+06  0.2713846E+01  0.4482338E+01  0.4602502E+00  0.2642138E+07 -0.1519803E+01  0.6602953E-05  0.2018941E+01
  0.9000000E+00  0.5698168E+06 -0.1519165E+01  0.1028045E+00  0.2994560E+01  0.1274648E+07 -0.4587747E+00  0.1156434E+01  0.2399844E+01  0.4712796E+07 -0.1519174E+01  0.2518111E-03  0.1730862E+01  0.4333482E+06 -0.1519163E+01  0.4060853E-01  0.2149035E+01  0.6633406E+06  0.2683479E+01  0.6902914E+01  0.4117825E+00  0.2733404E+07 -0.1519317E+01  0.2842525E-04 -0.1550665E+01
  0.9200000E+00  0.5812581E+06 -0.1519357E+01  0.2482655E+00 -0.1116574E+01  0.1237778E+07 -0.4907420E+00  0.1049243E+02 -0.5830039E-01  0.4760968E+07 -0.1519356E+01  0.9495437E-03 -0.1653167E+01  0.4290863E+06 -0.1519338E+01  0.3607962E+00 -0.2844779E+01  0.6270545E+06  0.2652187E+01  0.2869485E+01  0.2134176E+01  0.2820634E+07 -0.1519542E+01  0.8770589E-05  0.1730225E+01
  0.9400000E+00  0.5915952E+06 -0.1520352E+01  0.4137734E+00  0.4825091E+00  0.1202055E+07 -0.5236610E+00  0.2110978E+01 -0.1157122E+00  0.4797864E+07 -0.1520348E+01  0.7917398E-03  0.1531618E+01  0.4239015E+06 -0.1520341E+01  0.3302697E+00  0.2881909E+00  0.5908902E+06  0.2616157E+01  0.3205723E+01 -0.1237527E+00  0.2902902E+07 -0.1520315E+01  0.9692726E-05 -0.1663416E+01
  0.9599999E+00  0.6007598E+06 -0.1522254E+01  0.4427522E+00 -0.4019466E-01  0.1167265E+07 -0.5574096E+00  0.2405446E+01  0.2813964E+01  0.4823458E+07 -0.1522247E+01  0.1276885E-02 -0.1409136E+01  0.4179098E+06 -0.1522249E+01  0.2733147E+00 -0.2542558E+01  0.5566341E+06  0.2582495E+01  0.9535859E+01  0.3106179E+01  0.2977896E+07 -0.1522244E+01  0.3694993E-05 -0.8694488E+00
  0.9799999E+00  0.6087154E+06 -0.1525159E+01  0.5296512E+00  0.2935434E+01  0.1133420E+07 -0.5919983E+00  0.2225867E+01  0.2690211E+01  0.4837828E+07 -0.1525151E+01  0.2283251E-03 -0.2032623E+00  0.4111249E+06 -0.1525164E+01  0.1782046E+00 -0.2900060E+01  0.5238221E+06  0.2548784E+01  0.9272892E+01 -0.3121058E+01  0.3044682E+07 -0.1525257E+01  0.1145863E-04 -0.1520422E+01
  0.9999999E+00  0.6154582E+06 -0.1529147E+01  0.4136224E+00 -0.3140107E+01  0.1100098E+07 -0.6275462E+00  0.3829364E+01 -0.2525103E+01  0.4840614E+07 -0.1529165E+01  0.2531007E-03  0.1397729E+01  0.4036931E+06 -0.1529145E+01  0.1854922E+00  0.2167026E+01  0.4920645E+06  0.2514549E+01  0.5378119E+01 -0.2914287E+01  0.3103991E+07 -0.1529370E+01  0.8599816E-05  0.1508378E+01
  0.1020000E+01  0.6209736E+06 -0.1534346E+01  0.3229143E+00 -0.3122764E+01  0.1067914E+07 -0.6638343E+00  0.2986384E+01 -0.2609609E+01  0.4833134E+07 -0.1534359E+01  0.1000265E-03  0.1694506E+01  0.3956467E+06 -0.1534325E+01  0.3475833E+00  0.2769961E+01  0.4610682E+06  0.2478378E+01  0.4173862E+01 -0.3044326E+00  0.3157556E+07 -0.1534489E+01  0.9100044E-05 -0.1709841E+01
  0.1040000E+01  0.6252972E+06 -0.1540818E+01  0.2162896E+00  0.3067133E+01  0.1036699E+07 -0.7008867E+00  0.3240173E+01 -0.5623485E+00  0.4815596E+07 -0.1540814E+01  0.2257688E-02  0.1624789E+01  0.3870811E+06 -0.1540789E+01  0.2970375E+00 -0.1329108E+01  0.4317516E+06  0.2437608E+01  0.1527362E+01 -0.1152551E+01  0.3202452E+07 -0.1540645E+01  0.6748891E-06 -0.7454192E+00
  0.1060000E+01  0.6284800E+06 -0.1548610E+01  0.1223942E+00 -0.5389591E+00  0.1006300E+07 -0.7387710E+00  0.8199688E+00  0.6742793E+00  0.4788407E+07 -0.1548600E+01  0.1681336E-02 -0.1434105E+01  0.3780692E+06 -0.1548586E+01  0.1557314E+00  0.1265617E+01  0.4038285E+06  0.2398908E+01  0.7748064E+00  0.1145039E+00  0.3237351E+07 -0.1548432E+01  0.6319286E-05  0.1808455E+01
  0.1080000E+01  0.6305308E+06 -0.1557803E+01  0.6331975E-01  0.1364806E+00  0.9767030E+06 -0.7774520E+00  0.4086130E+01 -0.2316674E+00  0.4752170E+07 -0.1557789E+01  0.4383611E-03 -0.2140104E+01  0.3687115E+06 -0.1557796E+01  0.1639821E+00 -0.5787250E+00  0.3774907E+06  0.2360568E+01  0.2219868E+02 -0.3053111E+01  0.3263013E+07 -0.1557722E+01  0.9139310E-05  0.1596887E+01
  0.1100000E+01  0.6314888E+06 -0.1568456E+01  0.1155198E+00  0.1866912E+01  0.9478733E+06 -0.8169299E+00  0.1879283E+01 -0.1769222E+00  0.4707501E+07 -0.1568440E+01  0.2798421E-03 -0.4972818E-01  0.3590432E+06 -0.1568468E+01  0.2373829E+00  0.2366955E+01  0.3527320E+06  0.2322928E+01  0.3198043E+01  0.9966279E+00  0.3278564E+07 -0.1568630E+01  0.8649865E-05 -0.1446441E+01
  0.1120000E+01  0.6314088E+06 -0.1580612E+01  0.1839862E+00 -0.9681952E-01  0.9196065E+06 -0.8573580E+00  0.3494886E+01  0.2240150E+00  0.4654740E+07 -0.1580628E+01  0.1537146E-02 -0.1448779E+01  0.3491986E+06 -0.1580614E+01  0.2789940E+00  0.2320768E+01  0.3291519E+06  0.2284391E+01  0.1105747E+02  0.1993597E-01  0.3285640E+07 -0.1581084E+01  0.7282626E-05 -0.1636319E+01
  0.1140000E+01  0.6303499E+06 -0.1594355E+01  0.1538981E+00  0.2278114E+01  0.8921741E+06 -0.8985144E+00  0.9163224E+00 -0.2690765E+01  0.4595068E+07 -0.1594374E+01  0.9911256E-04 -0.1373532E+01  0.3392004E+06 -0.1594340E+01  0.7362368E-01  0.1356636E+01  0.3066110E+06  0.2241554E+01  0.6568893E+01 -0.4377329E+00  0.3288283E+07 -0.1594413E+01  0.1934696E-05  0.1257620E+01
  0.1160000E+01  0.6283878E+06 -0.1609704E+01  0.4699293E+00 -0.2346245E-04  0.8654852E+06 -0.9404023E+00  0.2154046E+01  0.1702833E+01  0.4529264E+07 -0.1609699E+01  0.2775342E-02  0.1523452E+01  0.3291424E+06 -0.1609665E+01  0.4246902E+00  0.2501796E+00  0.2856027E+06  0.2197825E+01  0.1696639E+02 -0.1630533E+00  0.3282425E+07 -0.1609594E+01  0.1922192E-05 -0.1695151E+01
  0.1180000E+01  0.6255912E+06 -0.1626649E+01  0.7535134E-01 -0.1101786E+01  0.8395275E+06 -0.9830779E+00  0.3495094E+01  0.2824527E+01  0.4457847E+07 -0.1626640E+01  0.1784226E-02  0.1554142E+01  0.3190457E+06 -0.1626662E+01  0.4294576E+00 -0.9867549E-01  0.2667573E+06  0.2150279E+01  0.7775705E+01  0.5807444E-01  0.3267957E+07 -0.1626005E+01  0.1278644E-05  0.1537227E+01
  0.1200000E+01  0.6220114E+06 -0.1645234E+01  0.1868024E+00  0.2146791E+01  0.8142228E+06 -0.1026569E+01  0.2649715E+01  0.2480280E+01  0.4381536E+07 -0.1645220E+01  0.7741424E-03  0.2400757E+01  0.3090035E+06 -0.1645283E+01  0.9320259E-01 -0.3049348E+00  0.2486186E+06  0.2106305E+01  0.1294282E+01  0.1301064E+01  0.3246162E+07 -0.1644618E+01  0.3457069E-05  0.1453285E+01
  0.1220000E+01  0.6177111E+06 -0.1665471E+01  0.2689591E+00 -0.4882295E-01  0.7895622E+06 -0.1070863E+01  0.9020433E+00  0.3125784E+01  0.4300978E+07 -0.1665455E+01  0.2420218E-02  0.1704777E+01  0.2990358E+06 -0.1665559E+01  0.2115724E+00 -0.8567611E+00  0.2316786E+06  0.2063867E+01  0.5669662E+01  0.2199772E+00  0.3217040E+07 -0.1665154E+01  0.5846654E-06 -0.2228978E+01
  0.1240000E+01  0.6127526E+06 -0.1687367E+01  0.1969788E+00  0.2188443E+01  0.7655214E+06 -0.1115968E+01  0.4148809E+01 -0.1314330E+00  0.4216814E+07 -0.1687351E+01  0.2266424E-02 -0.1546487E+01  0.2891858E+06 -0.1687489E+01  0.2280765E+00 -0.1696440E+01  0.2158050E+06  0.2023604E+01  0.2314341E+01  0.5228674E+00  0.3180906E+07 -0.1687742E+01  0.7851471E-06  0.8713935E+00
  0.1260000E+01  0.6071988E+06 -0.1710922E+01  0.1921071E+00 -0.2648939E+01  0.7420442E+06 -0.1162047E+01  0.1889950E+01 -0.1169918E-01  0.4129416E+07 -0.1710958E+01  0.3655016E-03 -0.1216595E+01  0.2795432E+06 -0.1710989E+01  0.1234114E+00 -0.1290317E+01  0.2009988E+06  0.1978355E+01  0.3014338E+01 -0.2787148E+01  0.3140900E+07 -0.1711764E+01  0.1014061E-05 -0.1931218E+01
  0.1280000E+01  0.6011291E+06 -0.1736172E+01  0.2555028E+00 -0.1198324E+01  0.7192179E+06 -0.1208813E+01  0.3314701E+01  0.6209855E-01  0.4039861E+07 -0.1736190E+01  0.5013913E-03 -0.1235765E+01  0.2700542E+06 -0.1736280E+01  0.1332976E+00 -0.5685048E+00  0.1876200E+06  0.1926820E+01  0.2247582E+01 -0.1018681E+01  0.3099867E+07 -0.1735729E+01  0.1236260E-05 -0.1729604E+01
  0.1300000E+01  0.5946016E+06 -0.1763077E+01  0.1748355E+00  0.1703154E+00  0.6969690E+06 -0.1256384E+01  0.1539401E+01  0.2932454E+01  0.3948434E+07 -0.1763075E+01  0.1412436E-02  0.1498688E+01  0.2608112E+06 -0.1763228E+01  0.2491062E+00  0.2095496E+01  0.1752525E+06  0.1875365E+01  0.1624983E+02 -0.3110353E+01  0.3054273E+07 -0.1761713E+01  0.2157984E-05  0.1587369E+01
  0.1320000E+01  0.5876593E+06 -0.1791612E+01  0.2111200E+00 -0.1905106E+01  0.6753170E+06 -0.1304762E+01  0.1996840E+01  0.2536211E+01  0.3855597E+07 -0.1791607E+01  0.1296022E-02  0.1583487E+01  0.2517894E+06 -0.1791856E+01  0.2931178E+00  0.1784274E+01  0.1644739E+06  0.1822226E+01  0.3624114E+01  0.2888005E+01  0.3004036E+07 -0.1789625E+01  0.4693214E-06 -0.3908834E+00
  0.1340000E+01  0.5803554E+06 -0.1821776E+01  0.4514018E+00  0.2810156E+01  0.6542172E+06 -0.1353969E+01  0.1499359E+01  0.2054442E+01  0.3761818E+07 -0.1821769E+01  0.7690100E-03 -0.9475348E+00  0.2430413E+06 -0.1822146E+01  0.2199194E+00 -0.2912031E+00  0.1538665E+06  0.1772106E+01  0.6996413E+01 -0.9339135E-01  0.2951219E+07 -0.1819592E+01  0.2437130E-06  0.2177114E+01
  0.1360000E+01  0.5727309E+06 -0.1853556E+01  0.2172638E+00  0.5577953E+00  0.6336598E+06 -0.1404006E+01  0.9997687E+00  0.3042244E+01  0.3667483E+07 -0.1853545E+01  0.1694005E-02  0.1166587E+01  0.2345705E+06 -0.1854013E+01  0.4760139E+00  0.2940236E+00  0.1437946E+06  0.1724303E+01  0.8970716E+01  0.2878492E+01  0.2895888E+07 -0.1851629E+01  0.5928586E-06 -0.1117041E+01
  0.1380000E+01  0.5648268E+06 -0.1886933E+01  0.2623136E-01  0.8072764E+00  0.6136236E+06 -0.1454864E+01  0.1713979E+01 -0.2883383E+01  0.3572920E+07 -0.1886923E+01  0.1788493E-02 -0.1338205E+01  0.2263723E+06 -0.1887482E+01  0.5187234E-01  0.1362842E+01  0.1341080E+06  0.1679338E+01  0.3337251E+01 -0.2583485E+01  0.2838318E+07 -0.1885984E+01  0.7007043E-06 -0.1378864E+01
  0.1400000E+01  0.5566821E+06 -0.1921891E+01  0.1014213E+00  0.2902487E+01  0.5940908E+06 -0.1506589E+01  0.1804919E+01  0.2725237E+01  0.3478473E+07 -0.1921885E+01  0.4867243E-03 -0.3037040E+01  0.2184724E+06 -0.1922488E+01  0.8582912E-01  0.9360660E-02  0.1249311E+06  0.1634181E+01  0.4801551E+01 -0.1517723E+01  0.2779628E+07 -0.1922665E+01  0.2212084E-06  0.2255400E+01
  0.1420000E+01  0.5483435E+06 -0.1958409E+01  0.2816703E-02 -0.1082758E+01  0.5750938E+06 -0.1559189E+01  0.3129790E+01  0.3830761E+00  0.3384420E+07 -0.1958432E+01  0.1409047E-02  0.1493636E+01  0.2108993E+06 -0.1958998E+01  0.1177249E+00 -0.4550631E+00  0.1174651E+06  0.1578682E+01  0.2005504E+01  0.1922956E+01  0.2721642E+07 -0.1958743E+01  0.4501820E-06 -0.1697245E+01
  0.1440000E+01  0.5398511E+06 -0.1996470E+01  0.5712241E-01 -0.5320926E+00  0.5565791E+06 -0.1612622E+01  0.3679619E+00 -0.3819874E+00  0.3291083E+07 -0.1996489E+01  0.1772077E-03 -0.2089124E+01  0.2035931E+06 -0.1997263E+01  0.2752456E+00  0.1722804E+00  0.1109639E+06  0.1520546E+01  0.1519321E+01 -0.8511112E+00  0.2663040E+07 -0.1994861E+01  0.2741956E-06 -0.1018986E-01
  0.1460000E+01  0.5312228E+06 -0.2036045E+01  0.2912404E-01 -0.1844405E+01  0.5385397E+06 -0.1666888E+01  0.4806027E+01  0.1487855E+00  0.3198625E+07 -0.2036054E+01  0.6813463E-03  0.2261725E+01  0.1966160E+06 -0.2037005E+01  0.8671529E-01  0.2563193E+01  0.1049395E+06  0.1462968E+01  0.3091086E+01 -0.8907048E+00  0.2604819E+07 -0.2032978E+01  0.6323149E-06 -0.1876226E+01
  0.1480000E+01  0.5224837E+06 -0.2077106E+01  0.7348245E-01  0.9092800E+00  0.5209767E+06 -0.1722001E+01  0.3349418E+01 -0.4377897E+00  0.3107254E+07 -0.2077122E+01  0.1256948E-02  0.1638592E+01  0.1899266E+06 -0.2078329E+01  0.1378444E+00  0.1154971E+00  0.9946340E+05  0.1406041E+01  0.5559376E+00 -0.6603463E+00  0.2546810E+07 -0.2073144E+01  0.2621237E-06 -0.1739870E+01
  0.1500000E+01  0.5136527E+06 -0.2119635E+01  0.4943160E-01  0.1385825E+01  0.5038539E+06 -0.1777934E+01  0.8991944E+00  0.2455967E+01  0.3017108E+07 -0.2119652E+01  0.5270885E-03 -0.2407959E+01  0.1835538E+06 -0.2121145E+01  0.1163696E+00  0.2790421E+01  0.9389188E+05  0.1350787E+01  0.1086062E+01  0.2452805E+01  0.2490305E+07 -0.2115220E+01  0.4198850E-06 -0.2050316E+01
  0.1520000E+01  0.5047477E+06 -0.2163605E+01  0.8831578E-01  0.2418161E+01  0.4871696E+06 -0.1834723E+01  0.2215360E+01  0.2636515E+01  0.2928364E+07 -0.2163623E+01  0.7347780E-03  0.1351203E+01  0.1774944E+06 -0.2165362E+01  0.2914436E-01  0.2492043E+00  0.8831940E+05  0.1297103E+01  0.8186629E+01 -0.2968040E+01  0.2435639E+07 -0.2159383E+01  0.1080068E-05  0.1257771E+01
  0.1540000E+01  0.4957857E+06 -0.2209001E+01  0.3047166E-01 -0.2318411E+01  0.4708952E+06 -0.1892377E+01  0.7301673E+00 -0.1494727E+01  0.2841078E+07 -0.2209029E+01  0.1440388E-02 -0.2790086E+01  0.1717216E+06 -0.2210987E+01  0.3977495E-01 -0.2095859E+01  0.8265161E+05  0.1244574E+01  0.1346307E+02  0.4072712E-02  0.2383134E+07 -0.2205831E+01  0.5077607E-06 -0.1909438E+01
  0.1560000E+01  0.4867711E+06 -0.2255796E+01  0.3978414E-01 -0.6590529E+00  0.4550215E+06 -0.1950907E+01  0.3210905E+01 -0.3139114E+01  0.2755392E+07 -0.2255816E+01  0.1479756E-02 -0.1649425E+01  0.1662484E+06 -0.2257943E+01  0.8795951E-01 -0.9325187E-01  0.7685085E+05  0.1192470E+01  0.3063795E+01 -0.4299404E+00  0.2333824E+07 -0.2254758E+01  0.4445297E-06  0.1325655E+01