VARIABLES="Frequency (rad/s)" "|Fx| (N/m)" "|Fy| (N/m)" "|Fz| (N/m)" "|Cx| (N)" "|Cy| (N)" "|Cz| (N)" "ang(Fx) (°)" "ang(Fy) (°)" "ang(Fz) (°)" "ang(Cx) (°)" "ang(Cy) (°)" "ang(Cz) (°)"
Zone t="Corps  1"
Zone t="Excitation force - beta =   0.000 deg",I=   260,F=POINT
 0.0200  0.375513E+03  0.404146E+00  0.280015E+07  0.260131E+00  0.393318E+04  0.722763E-04  697.02    1.01 *******    0.36 3459.33    0.00
  -90.00 -180.00   -0.00   -0.00  -90.01   -0.09
  -90.01   -0.00   -0.00   -0.02  -89.97  -90.00
 0.0400  0.150176E+04  0.183144E+00  0.279767E+07  0.169160E+00  0.157237E+05  0.787330E-04 2782.82    0.62 *******   32.02 *******    0.00
  -90.00 -180.00   -0.00  179.96  -90.00 -178.12
  -90.00 -180.00   -0.00   -0.00  -90.00  -90.00
 0.0600  0.337783E+04  0.386443E+00  0.279349E+07  0.487087E-01  0.353457E+05  0.760766E-04 6241.75    0.67 *******    5.35 *******    0.00
  -90.00   -0.01   -0.00   -0.29  -90.00  178.38
  -90.00 -179.99   -0.00 -179.99  -90.01  -90.00
 0.0800  0.600228E+04  0.518368E-01  0.278762E+07  0.867587E+01  0.627500E+05  0.807107E-04 *******    0.06 *******   60.19 *******    0.00
  -90.00 -179.94   -0.00   -0.00  -90.00   -2.37
  -90.00   -0.25   -0.00    0.00  -90.01  -90.00
 0.1000  0.937314E+04  0.118153E-02  0.277999E+07  0.683568E+01  0.978785E+05  0.146483E-03 *******    0.46 *******   20.00 *******    0.00
  -90.00    6.50   -0.00   -0.01  -90.00   -1.78
  -90.00  179.94   -0.00   -0.01  -90.01   90.00
 0.1200  0.134875E+05  0.388302E-01  0.277057E+07  0.391230E+01  0.140653E+06  0.518591E-04 *******    0.66 *******   17.01 *******    0.00
  -90.00 -179.77   -0.01   -0.00  -90.00  126.62
  -90.00  179.83   -0.01   -0.00  -90.01   90.00
 0.1400  0.183425E+05  0.561735E+00  0.275930E+07  0.100970E+02  0.190970E+06  0.977395E-04 *******    1.11 *******   13.07 *******    0.00
  -90.00  179.98   -0.02   -0.02  -90.00   -1.44
  -90.00   -0.01   -0.02   -0.05  -90.01   90.00
 0.1600  0.239336E+05  0.362634E-01  0.274608E+07  0.120520E+02  0.248697E+06  0.874679E-04 *******    0.32 5523.45   25.89 *******    0.00
  -90.00  179.91   -0.03 -179.99  -90.00  -30.43
  -90.00  179.46  179.97 -179.94  -90.01   90.00
 0.1800  0.302571E+05  0.386708E+00  0.273094E+07  0.715892E+01  0.313732E+06  0.849192E-04 *******    0.90 *******   10.42 *******    0.00
  -90.00 -180.00   -0.04   -0.09  -90.00   -8.57
  -90.00 -179.93  179.96  179.91  -90.01  -90.00
 0.2000  0.373077E+05  0.546785E+00  0.271381E+07  0.116378E+01  0.385912E+06  0.864419E-04 *******    1.22 *******   11.33 *******    0.00
  -90.00   -0.04   -0.06    0.28  -90.00 -169.40
  -90.00  179.99  179.94 -179.74  -90.01   90.00
 0.2200  0.450792E+05  0.536419E+00  0.269476E+07  0.310171E+01  0.465113E+06  0.129078E-03 *******    0.46 *******   20.30 *******    0.00
  -90.00    0.11   -0.09   -0.21  -90.00  146.88
  -90.00   -0.06  179.91  179.97  -90.01   90.00
 0.2400  0.535648E+05  0.293510E+00  0.267337E+07  0.671419E+01  0.551060E+06  0.225415E-03 *******    1.02 *******   27.34 *******    0.00
  -89.99   -0.09   -0.13   -0.06  -89.99   37.44
  -89.99   -0.10  179.87 -179.98  -90.01  -90.00
 0.2600  0.627569E+05  0.451227E+00  0.264980E+07  0.118806E+02  0.643602E+06  0.172074E-03 *******    0.07 *******    0.59 *******    0.00
  -89.99 -179.97   -0.18    0.05  -89.99  -75.08
  -89.99  178.16  179.82    1.97  -90.00  -90.00
 0.2800  0.726528E+05  0.961573E-02  0.262422E+07  0.922680E+01  0.742591E+06  0.241293E-04 *******    0.09 *******   11.48 *******    0.00
  -89.98 -170.02   -0.25   -0.03  -89.98   10.39
  -89.98   -2.21  179.75   -0.27  -90.00   90.00
 0.3000  0.832343E+05  0.184739E+00  0.259626E+07  0.839028E+01  0.847680E+06  0.120916E-03 *******    0.60 *******   15.41 *******    0.00
  -89.97   -0.17   -0.32  179.69  -89.97 -115.31
  -89.97 -179.73  179.68   -0.48  -89.99  -90.00
 0.3200  0.944997E+05  0.701029E+00  0.256596E+07  0.824664E+01  0.958657E+06  0.316124E-03 *******    0.27 *******    4.13 *******    0.00
  -89.96   -0.14   -0.42    0.15  -89.96  -46.87
  -89.96  179.54  179.58  179.83  -89.97   90.00
 0.3400  0.106432E+06  0.334891E+00  0.253366E+07  0.545775E-01  0.107538E+07  0.348993E-03 *******    0.53 *******   10.89 *******    0.00
  -89.95   -0.16   -0.54  171.80  -89.95   88.33
  -89.95   -0.03  179.46  179.25  -89.96  -90.00
 0.3600  0.119021E+06  0.285978E-01  0.249877E+07  0.867675E+01  0.119733E+07  0.251921E-03 *******    0.35 *******    0.11 *******    0.00
  -89.93   -0.40   -0.69  179.58  -89.93   88.48
  -89.93    0.67  179.31 -153.90  -89.93  -90.00
 0.3800  0.132254E+06  0.481759E-01  0.246200E+07  0.820040E+01  0.132448E+07  0.327705E-03 *******    0.14 *******    3.62 *******    0.00
  -89.90   -2.36   -0.86  179.50  -89.90  -94.63
  -89.90  175.68  179.14 -177.01  -89.90  -89.94
 0.4000  0.146118E+06  0.117434E+00  0.242279E+07  0.521566E+01  0.145620E+07  0.425678E-03 *******    0.58 *******    0.28 *******    0.00
  -89.87   -1.77   -1.07    0.06  -89.87   72.72
  -89.87 -179.15  178.93  170.44  -89.87  -90.00
 0.4200  0.160579E+06  0.692135E+00  0.238179E+07  0.310460E+01  0.159244E+07  0.312582E-03 *******    0.07 *******   13.39 *******    0.00
  -89.84    0.44   -1.32    2.89  -89.84  104.43
  -89.84   46.07  178.68 -179.24  -89.83   90.00
 0.4400  0.175640E+06  0.952928E-01  0.233916E+07  0.149784E+01  0.173279E+07  0.379995E-04 *******    0.77 *******   12.99 *******    0.00
  -89.79 -175.03   -1.61  175.63  -89.79  -38.25
  -89.79   -1.76  178.39 -179.08  -89.79  -89.78
 0.4600  0.191253E+06  0.692036E-01  0.229409E+07  0.295121E+01  0.187639E+07  0.530623E-03 *******    0.39 *******    2.26 *******    0.00
  -89.74  175.00   -1.95  177.94  -89.74  -89.75
  -89.74  171.94  178.05   -1.78  -89.73   90.23
 0.4800  0.207409E+06  0.529958E+00  0.224804E+07  0.719017E+01  0.202347E+07  0.394390E-03 *******    0.68 *******    2.38 *******    0.00
  -89.68   -1.41   -2.35  178.82  -89.68  103.29
  -89.68    1.93  177.65   12.98  -89.67  -90.00
 0.5000  0.224075E+06  0.792110E-01  0.220034E+07  0.118057E+02  0.217310E+07  0.879626E-04 *******    0.27 *******    4.91 *******    0.00
  -89.61    5.31   -2.80   -0.91  -89.61   93.54
  -89.60  177.67  177.20 -175.25  -89.60   92.24
 0.5200  0.241190E+06  0.617482E+00  0.215156E+07  0.226245E+01  0.232488E+07  0.413749E-03 *******    0.56 *******    7.58 *******    0.00
  -89.53   -2.16   -3.32    2.15  -89.53 -107.77
  -89.52  173.49  176.68  178.69  -89.52   90.37
 0.5400  0.258756E+06  0.144882E+00  0.210224E+07  0.974318E+01  0.247854E+07  0.893836E-03 *******    0.43 *******    4.67 *******    0.00
  -89.43   -0.83   -3.90  177.79  -89.43  -91.51
  -89.43 -174.48  176.10    1.27  -89.43  -89.63
 0.5600  0.276709E+06  0.527647E-01  0.205200E+07  0.589143E+01  0.263314E+07  0.105495E-02 *******    0.08 *******    2.28 *******    0.00
  -89.33 -155.52   -4.54    2.20  -89.33  -87.22
  -89.33   23.33  175.46 -173.68  -89.33   90.00
 0.5800  0.294968E+06  0.546251E+00  0.200137E+07  0.138530E+00  0.278803E+07  0.668166E-03 *******    0.59 *******    2.02 *******    0.00
  -89.22    0.99   -5.26  122.78  -89.22   89.33
  -89.22   -7.32  174.74    9.29  -89.22  -87.08
 0.6000  0.313528E+06  0.209827E+00  0.195090E+07  0.891859E+01  0.294300E+07  0.174668E-03 *******    0.24 *******   15.75 *******    0.00
  -89.09   -3.48   -6.05  176.79  -89.09   80.96
  -89.09  173.51  173.94 -175.01  -89.09  158.39
 0.6200  0.332307E+06  0.169301E+00  0.190067E+07  0.531096E+01  0.309720E+07  0.249519E-03 *******    0.14 *******    6.13 *******    0.00
  -88.96  166.74   -6.92 -178.04  -88.96  -98.17
  -88.96  136.48  173.08  -11.95  -88.96  -27.24
 0.6400  0.351210E+06  0.231268E+00  0.184993E+07  0.687864E+00  0.324908E+07  0.257130E-03 *******    0.43 *******   11.95 *******    0.00
  -88.81   12.33   -7.85 -135.15  -88.81   81.98
  -88.81    3.55  172.15    0.94  -88.81   95.03
 0.6600  0.370182E+06  0.761494E-01  0.180023E+07  0.576944E+01  0.339901E+07  0.395667E-03 *******    0.33 *******   20.19 *******    0.00
  -88.66  -43.72   -8.87    5.30  -88.66  -66.11
  -88.66  -16.26  171.13   -0.52  -88.65  -81.02
 0.6800  0.389158E+06  0.418673E+00  0.175129E+07  0.334421E+01  0.354582E+07  0.484783E-03 *******    0.23 *******   10.14 *******    0.00
  -88.49   -3.21   -9.95  179.74  -88.49  -97.69
  -88.49  -24.65  170.04 -172.93  -88.49  -90.00
 0.7000  0.408033E+06  0.284177E+00  0.170297E+07  0.273237E+01  0.368854E+07  0.197888E-02 *******    0.14 *******    1.56 *******    0.00
  -88.32  -32.85  -11.11   -8.29  -88.32   90.52
  -88.33  -26.30  168.89  165.99  -88.33  -87.49
 0.7200  0.426693E+06  0.134439E+00  0.165508E+07  0.391698E+01  0.382573E+07  0.622241E-03 *******    0.06 *******    6.57 *******    0.00
  -88.15 -178.42  -12.34   -7.36  -88.15  -91.97
  -88.15  -96.21  167.68   13.86  -88.16   85.50
 0.7400  0.445065E+06  0.282124E+00  0.160861E+07  0.136955E+01  0.395767E+07  0.339601E-03 *******    0.13 *******    2.28 *******    0.00
  -87.98    0.56  -13.64   32.72  -87.98  -79.91
  -87.98  166.42  166.34 -178.28  -87.98  104.15
 0.7600  0.463067E+06  0.286092E+00  0.156323E+07  0.102400E+01  0.408313E+07  0.856034E-03 *******    0.17 *******   19.78 *******    0.00
  -87.81 -164.66  -15.01 -152.15  -87.81  -76.10
  -87.81  -54.91  164.97 -178.09  -87.81 -151.99
 0.7800  0.480571E+06  0.515591E-01  0.151896E+07  0.267335E+01  0.420124E+07  0.694339E-04 *******    0.32 *******   10.55 *******    0.00
  -87.65    3.62  -16.44  113.39  -87.65  -39.75
  -87.65  171.21  163.56  178.61  -87.65  -74.30
 0.8000  0.497471E+06  0.123101E+00  0.147508E+07  0.765659E+00  0.431032E+07  0.172986E-02 *******    0.04 *******    4.49 *******    0.00
  -87.49   13.48  -17.93 -133.50  -87.49  -90.24
  -87.49  -98.58  162.09  110.12  -87.50   86.82
 0.8200  0.513662E+06  0.886353E-01  0.143281E+07  0.555601E+01  0.441106E+07  0.260442E-02 *******    0.26 *******    1.50 *******    0.00
  -87.35  -38.05  -19.48  175.48  -87.35  -92.45
  -87.35  -18.00  160.57   47.95  -87.36  -97.15
 0.8400  0.529100E+06  0.979245E-01  0.139181E+07  0.513825E+01  0.450231E+07  0.832684E-03 *******    0.25 *******    6.39 *******    0.00
  -87.23  176.40  -21.10 -171.90  -87.23  -99.91
  -87.23  147.63  158.85  177.63  -87.23  -90.57
 0.8600  0.543661E+06  0.649107E+00  0.135190E+07  0.682891E+00  0.458348E+07  0.243631E-03 *******    0.27 *******    6.35 *******    0.00
  -87.14    9.10  -22.77  176.90  -87.14 -125.90
  -87.14    2.59  157.18  159.82  -87.14   52.97
 0.8800  0.557257E+06  0.665981E+00  0.131293E+07  0.216818E+01  0.465399E+07  0.101075E-02 *******    0.23 *******    4.48 *******    0.00
  -87.07 -172.31  -24.50 -168.84  -87.07   91.54
  -87.07   27.90  155.49   26.37  -87.08  115.68
 0.9000  0.569817E+06  0.102804E+00  0.127465E+07  0.115643E+01  0.471280E+07  0.251811E-03 *******    0.04 *******    6.90 *******    0.00
  -87.04  171.58  -26.29  137.50  -87.04   99.17
  -87.04  123.13  153.75   23.59  -87.05  -88.85
 0.9200  0.581258E+06  0.248266E+00  0.123778E+07  0.104924E+02  0.476097E+07  0.949544E-03 *******    0.36 *******    2.87 *******    0.00
  -87.05  -63.97  -28.12   -3.34  -87.05  -94.72
  -87.05 -162.99  151.96  122.28  -87.06   99.13
 0.9400  0.591595E+06  0.413773E+00  0.120205E+07  0.211098E+01  0.479786E+07  0.791740E-03 *******    0.33 *******    3.21 *******    0.00
  -87.11   27.65  -30.00   -6.63  -87.11   87.76
  -87.11   16.51  149.89   -7.09  -87.11  -95.31
 0.9600  0.600760E+06  0.442752E+00  0.116726E+07  0.240545E+01  0.482346E+07  0.127688E-02 *******    0.27 *******    9.54 *******    0.00
  -87.22   -2.30  -31.94  161.23  -87.22  -80.74
  -87.22 -145.68  147.97  177.97  -87.22  -49.82
 0.9800  0.608715E+06  0.529651E+00  0.113342E+07  0.222587E+01  0.483783E+07  0.228325E-03 *******    0.18 *******    9.27 *******    0.00
  -87.39  168.19  -33.92  154.14  -87.38  -11.65
  -87.39 -166.16  146.03 -178.82  -87.39  -87.11
 1.0000  0.615458E+06  0.413622E+00  0.110010E+07  0.382936E+01  0.484061E+07  0.253101E-03 *******    0.19 *******    5.38 *******    0.00
  -87.61 -179.91  -35.96 -144.68  -87.61   80.08
  -87.61  124.16  144.07 -166.98  -87.63   86.42
 1.0200  0.620974E+06  0.322914E+00  0.106791E+07  0.298638E+01  0.483313E+07  0.100026E-03 *******    0.35 *******    4.17 *******    0.00
  -87.91 -178.92  -38.03 -149.52  -87.91   97.09
  -87.91  158.71  142.00  -17.44  -87.92  -97.97
 1.0400  0.625297E+06  0.216290E+00  0.103670E+07  0.324017E+01  0.481560E+07  0.225769E-02 *******    0.30 *******    1.53 *******    0.00
  -88.28  175.73  -40.16  -32.22  -88.28   93.09
  -88.28  -76.15  139.66  -66.04  -88.27  -42.71
 1.0600  0.628480E+06  0.122394E+00  0.100630E+07  0.819969E+00  0.478841E+07  0.168134E-02 *******    0.16 *******    0.77 *******    0.00
  -88.73  -30.88  -42.33   38.63  -88.73  -82.17
  -88.73   72.51  137.45    6.56  -88.72  103.62
 1.0800  0.630531E+06  0.633198E-01  0.976703E+06  0.408613E+01  0.475217E+07  0.438361E-03 *******    0.16 *******   22.20 *******    0.00
  -89.26    7.82  -44.54  -13.27  -89.25 -122.62
  -89.26  -33.16  135.25 -174.93  -89.25   91.49
 1.1000  0.631489E+06  0.115520E+00  0.947873E+06  0.187928E+01  0.470750E+07  0.279842E-03 *******    0.24 *******    3.20 *******    0.00
  -89.87  106.97  -46.81  -10.14  -89.87   -2.85
  -89.87  135.62  133.09   57.10  -89.88  -82.87
 1.1200  0.631409E+06  0.183986E+00  0.919606E+06  0.349489E+01  0.465474E+07  0.153715E-02 *******    0.28 *******   11.06 *******    0.00
  -90.56   -5.55  -49.12   12.84  -90.56  -83.01
  -90.56  132.97  130.89    1.14  -90.59  -93.75
 1.1400  0.630350E+06  0.153898E+00  0.892174E+06  0.916322E+00  0.459507E+07  0.991126E-04 *******    0.07 *******    6.57 *******    0.00
  -91.35  130.53  -51.48 -154.17  -91.35  -78.70
  -91.35   77.73  128.43  -25.08  -91.35   72.06
 1.1600  0.628388E+06  0.469929E+00  0.865485E+06  0.215405E+01  0.452926E+07  0.277534E-02 *******    0.42 *******   16.97 *******    0.00
  -92.23   -0.00  -53.88   97.57  -92.23   87.29
  -92.23   14.33  125.93   -9.34  -92.22  -97.12
 1.1800  0.625591E+06  0.753513E-01  0.839528E+06  0.349509E+01  0.445785E+07  0.178423E-02 *******    0.43 *******    7.78 *******    0.00
  -93.20  -63.13  -56.33  161.83  -93.20   89.05
  -93.20   -5.65  123.20    3.33  -93.16   88.08
 1.2000  0.622011E+06  0.186802E+00  0.814223E+06  0.264971E+01  0.438154E+07  0.774142E-03 *******    0.09 *******    1.29 *******    0.00
  -94.26  123.00  -58.82  142.11  -94.26  137.55
  -94.27  -17.47  120.68   74.55  -94.23   83.27
 1.2200  0.617711E+06  0.268959E+00  0.789562E+06  0.902043E+00  0.430098E+07  0.242022E-02 *******    0.21 *******    5.67 *******    0.00
  -95.42   -2.80  -61.36  179.09  -95.42   97.68
  -95.43  -49.09  118.25   12.60  -95.41 -127.71
 1.2400  0.612753E+06  0.196979E+00  0.765521E+06  0.414881E+01  0.421681E+07  0.226642E-02 *******    0.23 *******    2.31 *******    0.00
  -96.68  125.39  -63.94   -7.53  -96.68  -88.61
  -96.69  -97.20  115.94   29.96  -96.70   49.93
 1.2600  0.607199E+06  0.192107E+00  0.742044E+06  0.188995E+01  0.412942E+07  0.365502E-03 *******    0.12 *******    3.01 *******    0.00
  -98.03 -151.77  -66.58   -0.67  -98.03  -69.71
  -98.03  -73.93  113.35 -159.69  -98.08 -110.65
 1.2800  0.601129E+06  0.255503E+00  0.719218E+06  0.331470E+01  0.403986E+07  0.501391E-03 *******    0.13 *******    2.25 *******    0.00
  -99.48  -68.66  -69.26    3.56  -99.48  -70.80
  -99.48  -32.57  110.40  -58.37  -99.45  -99.10
 1.3000  0.594602E+06  0.174835E+00  0.696969E+06  0.153940E+01  0.394843E+07  0.141244E-02 *******    0.25 *******   16.25 *******    0.00
 -101.02    9.76  -71.99  168.02 -101.02   85.87
 -101.03  120.06  107.45 -178.21 -100.94   90.95
 1.3200  0.587659E+06  0.211120E+00  0.675317E+06  0.199684E+01  0.385560E+07  0.129602E-02 *******    0.29 *******    3.62 *******    0.00
 -102.65 -109.15  -74.76  145.31 -102.65   90.73
 -102.67  102.23  104.41  165.47 -102.54  -22.40
 1.3400  0.580355E+06  0.451402E+00  0.654217E+06  0.149936E+01  0.376182E+07  0.769010E-03 *******    0.22 *******    7.00 *******    0.00
 -104.38  161.01  -77.58  117.71 -104.38  -54.29
 -104.40  -16.68  101.53   -5.35 -104.25  124.74
 1.3600  0.572731E+06  0.217264E+00  0.633660E+06  0.999769E+00  0.366748E+07  0.169400E-02 *******    0.48 *******    8.97 *******    0.00
 -106.20   31.96  -80.44  174.31 -106.20   66.84
 -106.23   16.85   98.80  164.93 -106.09  -64.00
 1.3800  0.564827E+06  0.262314E-01  0.613624E+06  0.171398E+01  0.357292E+07  0.178849E-02 *******    0.05 *******    3.34 *******    0.00
 -108.11   46.25  -83.36 -165.21 -108.11  -76.67
 -108.14   78.09   96.22 -148.02 -108.06  -79.00
 1.4000  0.556682E+06  0.101421E+00  0.594091E+06  0.180492E+01  0.347847E+07  0.486724E-03 *******    0.09 *******    4.80 *******    0.00
 -110.12  166.30  -86.32  156.14 -110.12 -174.01
 -110.15    0.54   93.63  -86.96 -110.16  129.22
 1.4200  0.548344E+06  0.281670E-02  0.575094E+06  0.312979E+01  0.338442E+07  0.140905E-02 *******    0.12 *******    2.01 *******    0.00
 -112.21  -62.04  -89.33   21.95 -112.21   85.58
 -112.24  -26.07   90.45  110.18 -112.23  -97.24
 1.4400  0.539851E+06  0.571224E-01  0.556579E+06  0.367962E+00  0.329108E+07  0.177208E-03 *******    0.28 *******    1.52 *******    0.00
 -114.39  -30.49  -92.40  -21.89 -114.39 -119.70
 -114.43    9.87   87.12  -48.77 -114.30   -0.58
 1.4600  0.531223E+06  0.291240E-01  0.538540E+06  0.480603E+01  0.319862E+07  0.681346E-03 *******    0.09 *******    3.09 *******    0.00
 -116.66 -105.68  -95.51    8.52 -116.66  129.59
 -116.71  146.86   83.82  -51.03 -116.48 -107.50
 1.4800  0.522484E+06  0.734825E-01  0.520977E+06  0.334942E+01  0.310725E+07  0.125695E-02 *******    0.14 *******    0.56 *******    0.00
 -119.01   52.10  -98.66  -25.08 -119.01   93.88
 -119.08    6.62   80.56  -37.84 -118.78  -99.69
 1.5000  0.513653E+06  0.494316E-01  0.503854E+06  0.899194E+00  0.301711E+07  0.527088E-03 *******    0.12 *******    1.09 *******    0.00
 -121.45   79.40 -101.87  140.72 -121.45 -137.97
 -121.53  159.88   77.39  140.54 -121.19 -117.47
 1.5200  0.504748E+06  0.883158E-01  0.487170E+06  0.221536E+01  0.292836E+07  0.734778E-03 *******    0.03 *******    8.19 *******    0.00
 -123.97  138.55 -105.12  151.06 -123.97   77.42
 -124.07   14.28   74.32 -170.06 -123.72   72.06
 1.5400  0.495786E+06  0.304717E-01  0.470895E+06  0.730167E+00  0.284108E+07  0.144039E-02 *******    0.04 *******   13.46 *******    0.00
 -126.57 -132.84 -108.43  -85.64 -126.57 -159.86
 -126.68 -120.08   71.31    0.23 -126.38 -109.40
 1.5600  0.486771E+06  0.397841E-01  0.455022E+06  0.321091E+01  0.275539E+07  0.147976E-02 *******    0.09 *******    3.06 *******    0.00
 -129.25  -37.76 -111.78 -179.86 -129.25  -94.51
 -129.37   -5.34   68.32  -24.63 -129.19   75.95
 1.5800  0.477730E+06  0.750796E-01  0.439529E+06  0.106022E+01  0.267132E+07  0.886796E-03 *******    0.10 *******   12.67 *******    0.00
 -132.01  122.08 -115.18  -74.17 -132.01   75.77
 -132.13  -20.08   64.93  166.36 -132.06  -15.98
 1.6000  0.468665E+06  0.190579E+00  0.424444E+06  0.150775E+01  0.258900E+07  0.145559E-02 *******    0.05 *******    3.36 *******    0.00
 -134.85 -119.77 -118.64  -29.27 -134.85  132.21
 -134.98  117.83   61.42 -161.72 -134.82  -86.20
 1.6200  0.459588E+06  0.199016E+00  0.409709E+06  0.416251E+00  0.250846E+07  0.143677E-02 *******    0.08 *******    1.90 *******    0.00
 -137.76   36.74 -122.14   77.93 -137.76  119.08
 -137.92  171.50   57.89   64.10 -137.65   49.57
 1.6400  0.450496E+06  0.187293E+00  0.395307E+06  0.121857E+01  0.242974E+07  0.133848E-02 *******    0.10 *******    1.19 *******    0.00
 -140.75 -138.01 -125.70  -14.59 -140.76 -107.11
 -140.93  134.94   54.39 -163.85 -140.59  152.55
 1.6600  0.441386E+06  0.563051E-02  0.381197E+06  0.307885E+01  0.235283E+07  0.652754E-03 *******    0.39 *******    1.49 *******    0.00
 -143.82  -34.89 -129.31  169.04 -143.82   70.93
 -144.03  -14.77   50.89    2.67 -143.62 -110.12
 1.6800  0.432263E+06  0.276687E+00  0.367355E+06  0.940299E+00  0.227777E+07  0.170015E-02 *******    0.12 *******    3.62 *******    0.00
 -146.96 -173.66 -132.97 -140.96 -146.96 -164.51
 -147.19   47.80   47.36 -178.40 -146.76 -166.49
 1.7000  0.423111E+06  0.119703E+00  0.353759E+06  0.159280E+01  0.220457E+07  0.195291E-02 *******    0.39 *******    1.87 *******    0.00
 -150.17  -62.34 -136.67  165.14 -150.17  -78.38
 -150.43   -3.78   43.79  174.09 -149.98  125.08
 1.7200  0.413922E+06  0.110018E+00  0.340332E+06  0.497275E+00  0.213320E+07  0.914066E-03 *******    0.18 *******    4.30 *******    0.00
 -153.45  -40.14 -140.44  148.87 -153.46  -88.07
 -153.72  138.33   40.09  173.76 -153.31  -44.52
 1.7400  0.404692E+06  0.226273E+00  0.327017E+06  0.863964E+00  0.206365E+07  0.408261E-03 *******    0.12 *******    3.85 *******    0.00
 -156.80 -177.72 -144.26 -120.49 -156.81 -106.22
 -157.09  169.02   36.22    2.19 -156.75  179.28
 1.7600  0.395397E+06  0.327745E-01  0.313738E+06  0.142646E+01  0.199593E+07  0.312616E-02 *******    0.17 *******   10.49 *******    0.00
 -160.23 -145.97 -148.14 -176.36 -160.23    2.30
 -160.52  166.01   32.20 -179.49 -160.26  171.16
 1.7800  0.386021E+06  0.104541E+00  0.300451E+06  0.884041E+00  0.193004E+07  0.878165E-03 *******    0.31 *******    6.65 *******    0.00
 -163.72  -68.95 -152.07 -179.69 -163.72   28.43
 -164.01   -4.79   28.43  171.95 -163.78   96.41
 1.8000  0.376542E+06  0.178327E+00  0.286954E+06  0.357885E+00  0.186590E+07  0.430793E-03 *******    0.03 *******    1.73 *******    0.00
 -167.28   19.91 -156.07  -43.06 -167.29  -66.35
 -167.59 -117.92   24.56  158.69 -167.33   35.51
 1.8200  0.366929E+06  0.142084E+00  0.272973E+06  0.286633E+00  0.180357E+07  0.962968E-03 *******    0.22 *******    0.71 *******    0.00
 -170.91 -157.91 -160.14   84.78 -170.91  -56.89
 -171.24  177.76   20.67  129.74 -170.95   -1.99
 1.8400  0.357124E+06  0.133643E+00  0.258048E+06  0.278958E+00  0.174294E+07  0.172721E-02 *******    0.36 *******    5.35 *******    0.00
 -174.60 -168.87 -164.28   63.64 -174.61 -158.80
 -174.94  179.08   16.86  -13.28 -174.65  -90.00
 1.8600  0.347086E+06  0.114544E+00  0.241333E+06  0.831084E+00  0.168401E+07  0.239201E-03 *******    0.05 *******    8.35 *******    0.00
 -178.36  -24.97 -168.52  175.83 -178.37  172.89
 -178.72   22.56   12.88 -178.32 -178.42    2.43
 1.8800  0.336746E+06  0.112053E+00  0.221055E+06  0.105909E+00  0.162673E+07  0.135594E-02 *******    0.32 *******    5.01 *******    0.00
  177.81 -176.63 -172.89  107.59  177.80  100.27
  177.44  178.80    8.84 -152.94  177.74   -0.26
 1.9000  0.326017E+06  0.389533E+00  0.192695E+06  0.366690E+00  0.157105E+07  0.146879E-02 *******    0.31 *******    6.51 *******    0.00
  173.92  179.40 -177.49   26.58  173.91 -168.80
  173.55   -0.35    4.99 -177.19  173.84 -179.22
 1.9200  0.314783E+06  0.566393E+00  0.140020E+06  0.875544E+00  0.151687E+07  0.159964E-02 *******    0.04 *******   15.43 *******    0.00
  169.97 -179.13  177.33  156.22  169.96  -28.99
  169.60 -174.72    2.44  179.49  169.87 -160.42
 1.9400  0.302893E+06  0.129486E+00  0.684427E+05  0.138604E+00  0.146418E+07  0.121610E-02 *******    0.02 *******   17.65 *******    0.00
  165.94   17.56  -10.39  101.78  165.94  -35.16
  165.59  -88.67  164.80   17.16  165.84 -172.61
 1.9600  0.290154E+06  0.925654E+00  0.622475E+06  0.391698E+00  0.141291E+07  0.148361E-02 *******    0.36 *******   18.07 *******    0.00
  161.86   -3.60  179.41   -4.36  161.86   18.95
  161.52 -177.87   -0.97   -2.99  161.75    5.80
 1.9800  0.276287E+06  0.128045E+00  0.346762E+06  0.290122E+00  0.136296E+07  0.951161E-03 *******    0.17 *******    5.49 *******    0.00
  157.71   47.53  169.35   11.10  157.71   93.23
  157.40  -30.53  -11.08 -151.96  157.61  106.91
 2.0000  0.260901E+06  0.282759E+00  0.289453E+06  0.568105E+00  0.131427E+07  0.122078E-02 *******    0.06 *******    1.36 *******    0.00
  153.50   -9.61  163.82  -14.58  153.50  110.41
  153.21   43.38  -16.90   42.59  153.40 -172.69
 2.0200  0.243428E+06  0.138504E+00  0.261084E+06  0.272268E+00  0.126674E+07  0.765412E-03 *******    0.06 *******    2.38 *******    0.00
  149.22  170.53  158.87   -6.42  149.22   33.49
  148.93   84.19  -21.93  130.52  149.12  168.46
 2.0400  0.222980E+06  0.473670E-01  0.242273E+06  0.424184E-01  0.122021E+07  0.334625E-03 *******    0.09 *******    1.48 *******    0.00
  144.88   53.34  154.06   63.05  144.88   21.68
  144.61  -99.89  -26.80 -142.38  144.78   92.01
 2.0600  0.198159E+06  0.144893E+00  0.227892E+06  0.156065E+00  0.117446E+07  0.109897E-02 *******    0.16 *******    2.78 *******    0.00
  140.47   52.26  149.29   25.01  140.47   91.65
  140.22  -63.48  -31.75  174.36  140.37 -160.90
 2.0800  0.166606E+06  0.110602E+00  0.216009E+06  0.504605E+00  0.112911E+07  0.328855E-03 *******    0.06 *******    0.97 *******    0.00
  135.99  -72.37  144.53 -172.92  135.99   35.75
  135.75  -37.75  -36.51   53.06  135.89   90.48
 2.1000  0.123949E+06  0.422741E-01  0.205694E+06  0.331123E+00  0.108350E+07  0.583860E-03 *******    0.05 *******    1.18 *******    0.00
  131.42  -19.22  139.75 -175.45  131.44  101.30
  131.22  146.02  -41.31   -4.40  131.35   84.36
 2.1200  0.611096E+05  0.138366E-01  0.196464E+06  0.385886E+00  0.103629E+07  0.628581E-03 *******    0.07 *******    0.79 *******    0.00
  126.67   75.34  134.93  -38.40  126.80   70.21
  126.62   67.82  -46.19 -118.78  126.73  -61.34
 2.1400  0.443740E+05  0.752716E-01  0.188045E+06  0.239813E+00  0.984268E+06  0.216326E-02 *******    0.05 *******    0.83 *******    0.00
  -57.54  -22.38  130.08  156.40  122.04  100.94
  121.89   15.56  -51.14  156.83  121.98   30.51
 2.1600  0.267077E+06  0.372363E-01  0.180194E+06  0.363116E+00  0.916784E+06  0.127637E-02 *******    0.03 *******    0.79 *******    0.00
  -62.79  160.66  125.18   98.62  117.03   88.20
  116.92  157.53  -56.07 -163.85  117.00   91.18
 2.1800  0.109493E+07  0.169650E+00  0.172959E+06  0.620153E-01  0.764470E+06  0.248664E-02 *******    0.09 *******    0.43 *******    0.00
  -68.79 -151.30  120.26 -145.95  110.99   85.95
  110.97   65.04  -60.99 -175.47  111.05 -168.20
 2.2000  0.396932E+07  0.639373E-01  0.166102E+06  0.311363E+00  0.144325E+07  0.827364E-04 *******    0.12 *******    8.70 *******    0.00
  114.08  176.63  115.30  127.56  114.16  146.02
  -66.12  126.35  -65.95 -103.85  -66.05  -43.64
 2.2200  0.111564E+07  0.501446E-01  0.159636E+06  0.216134E+00  0.101094E+07  0.850919E-03 *******    0.07 *******    1.07 *******    0.00
  104.93   42.64  110.28  125.41  104.91   26.83
  -75.23 -147.84  -71.00  177.92  -75.17   78.07
 2.2400  0.761397E+06  0.590360E-01  0.153539E+06  0.194564E+00  0.929152E+06  0.109981E-02 *******    0.03 *******    0.85 *******    0.00
   99.50  -83.79  105.18 -163.44   99.48   18.75
  -80.63  141.15  -76.25  -97.77  -80.57   94.86
 2.2600  0.621359E+06  0.985599E-01  0.147699E+06  0.708442E-01  0.878472E+06  0.747165E-03 *******    0.08 *******    1.04 *******    0.00
   94.35    4.10  100.05  -50.57   94.33  143.85
  -85.79  -31.24  -81.48   78.09  -85.72   80.69
 2.2800  0.545616E+06  0.826218E-01  0.142207E+06  0.169690E+00  0.837799E+06  0.140688E-02 *******    0.08 *******    1.11 *******    0.00
   89.23 -102.84   94.87   15.45   89.22 -120.29
  -90.91  171.20  -86.69  164.97  -90.84   85.49
 2.3000  0.497801E+06  0.580419E-01  0.137013E+06  0.530779E+00  0.801791E+06  0.125982E-02 *******    0.04 *******    1.88 *******    0.00
   84.09   57.27   89.62  -13.17   84.08  -39.30
  -96.05  -52.51  -92.18   37.36  -95.98  -93.78
 2.3200  0.464815E+06  0.117575E+00  0.132112E+06  0.293014E+00  0.768914E+06  0.171493E-02 *******    0.05 *******    0.69 *******    0.00
   78.93   46.41   84.32 -173.67   78.91  -57.66
 -101.22   49.83  -97.60  -42.19 -101.15 -144.20
 2.3400  0.440721E+06  0.451414E-01  0.127568E+06  0.158755E-01  0.738188E+06  0.858337E-03 *******    0.11 *******    3.89 *******    0.00
   73.72  -37.90   78.98  105.88   73.70 -135.64
 -106.43   40.55 -103.05  131.43 -106.35   33.88
 2.3600  0.422500E+06  0.979820E-01  0.123586E+06  0.504323E-01  0.709182E+06  0.494400E-03 *******    0.10 *******    0.43 *******    0.00
   68.47 -171.81   73.57   13.97   68.44  131.55
 -111.68  127.96 -108.70   18.46 -111.60    7.38
 2.3800  0.408491E+06  0.117532E+00  0.120675E+06  0.221682E+00  0.681643E+06  0.117684E-02 *******    0.11 *******    1.14 *******    0.00
   63.18   67.45   68.01    6.44   63.14  -57.32
 -116.97   60.87 -114.90  153.30 -116.89 -115.01
 2.4000  0.397702E+06  0.439865E+00  0.122003E+06  0.148937E+01  0.655328E+06  0.437428E-03 *******    1.42 *******   88.79 *******    0.00
   57.85  152.09   62.16   23.06   57.80 -110.28
 -122.31  147.25 -122.50   22.46 -122.23   76.00
 2.4200  0.389576E+06  0.232774E+00  0.370129E+05  0.185376E+00  0.629140E+06  0.353644E-03 *******    1.52 *******   12.59 *******    0.00
   52.42 -149.98   82.81   99.88   52.36 -100.54
 -127.77   99.09   32.86   26.68 -127.68 -132.61
 2.4400  0.383791E+06  0.945297E-01  0.949457E+05  0.122078E+00  0.604760E+06  0.816710E-03 *******    0.11 7874.99   10.93 *******    0.00
   47.01    1.46   52.90  -49.26   46.97 -127.61
 -133.16   90.69 -121.45   89.76 -133.08 -167.76
 2.4600  0.380296E+06  0.529278E-01  0.948205E+05  0.135132E+00  0.580830E+06  0.138973E-02 *******    0.09 9350.71    1.41 *******    0.00
   41.53  153.65   46.76  -23.17   41.50  -18.69
 -138.63   80.41 -131.45   73.32 -138.55  -30.90
 2.4800  0.379197E+06  0.478740E-01  0.924555E+05  0.377429E+00  0.557472E+06  0.218883E-03 *******    0.06 9777.57    0.55 *******    0.00
   36.00  171.30   40.88   23.14   35.97   -3.54
 -144.15  -84.89 -138.45 -147.08 -144.08 -165.19
 2.5000  0.380800E+06  0.253973E-01  0.894691E+05  0.150779E+00  0.534657E+06  0.317215E-03 *******    0.02 9520.86    1.30 *******    0.00
   30.42  -77.43   35.13   45.06   30.39  126.48