VARIABLES="w (rad/s)"
"abs(F   1   1)" "angle(F   1   1)"
"abs(F   1   2)" "angle(F   1   2)"
"abs(F   1   3)" "angle(F   1   3)"
"abs(F   1   4)" "angle(F   1   4)"
"abs(F   1   5)" "angle(F   1   5)"
"abs(F   1   6)" "angle(F   1   6)"
"abs(F   2   7)" "angle(F   2   7)"
"abs(F   2   8)" "angle(F   2   8)"
"abs(F   2   9)" "angle(F   2   9)"
"abs(F   2  10)" "angle(F   2  10)"
"abs(F   2  11)" "angle(F   2  11)"
"abs(F   2  12)" "angle(F   2  12)"
Zone t="FKforce - beta =   0.000",I=   260,F=POINT
  0.2000000E-01  0.2903178E+03 -0.1570801E+01  0.4040833E+00 -0.3141592E+01  0.2800688E+07  0.3660529E-11  0.2594452E+00 -0.8292855E-04  0.2937863E+04 -0.1570922E+01  0.7226320E-04 -0.8059582E-03  0.3544503E+03 -0.1571126E+01  0.1006527E+01 -0.2220680E-07  0.2766820E+06 -0.3446824E-11  0.3642578E+00 -0.2146867E-03  0.2032085E+04 -0.1569628E+01  0.9238720E-06 -0.1570796E+01
  0.4000000E-01  0.1161088E+04 -0.1570771E+01  0.1831970E+00  0.3141588E+01  0.2799819E+07  0.2303443E-10  0.1712341E+00  0.3141426E+01  0.1174801E+05 -0.1570816E+01  0.7872975E-04 -0.3108229E+01  0.1415096E+04 -0.1570785E+01  0.6181679E+00  0.3141584E+01  0.2756083E+06  0.6920504E-10  0.3199414E+02  0.5961556E-07  0.8125693E+04 -0.1570606E+01  0.4053116E-05 -0.1570796E+01
  0.6000000E-01  0.2611756E+04 -0.1570806E+01  0.3870010E+00 -0.4460710E-04  0.2798346E+07 -0.1669916E-09  0.5827469E-01 -0.6871629E-02  0.2642013E+05 -0.1570800E+01  0.7601712E-04  0.3114701E+01  0.3173860E+04 -0.1570747E+01  0.6658154E+00 -0.3141592E+01  0.2738599E+06 -0.4429542E-08  0.5236328E+01 -0.3141473E+01  0.1827306E+05 -0.1570680E+01  0.1907349E-05 -0.1570796E+01
  0.8000000E-01  0.4641391E+04 -0.1570793E+01  0.5192567E-01 -0.3141088E+01  0.2796320E+07 -0.4433601E-11  0.8664505E+01 -0.1094821E-04  0.4693703E+05 -0.1570795E+01  0.8037491E-04 -0.1978879E-01  0.5617398E+04 -0.1570762E+01  0.5575180E-01 -0.4169518E-04  0.2713996E+06 -0.5959595E-08  0.6019531E+02  0.2788368E-04  0.3246034E+05 -0.1570906E+01  0.1215935E-04 -0.1570796E+01
  0.9999999E-01  0.7248680E+04 -0.1570797E+01  0.9853435E-03  0.4835134E-01  0.2793687E+07 -0.1058240E-10  0.6807648E+01  0.1746731E-04  0.7327448E+05 -0.1570795E+01  0.1462957E-03  0.1382489E-01  0.8727275E+04 -0.1570794E+01  0.4662704E+00 -0.3141501E+01  0.2682872E+06 -0.1353621E-07  0.2005176E+02  0.4413627E-04  0.5066968E+05 -0.1570829E+01  0.4768372E-06  0.1570796E+01
  0.1200000E+00  0.1043190E+05 -0.1570797E+01  0.3855899E-01 -0.3140285E+01  0.2790460E+07 -0.3113456E-09  0.3934677E+01 -0.2103679E-03  0.1054015E+06 -0.1570801E+01  0.4710922E-04  0.2285919E+01  0.1248014E+05 -0.1570818E+01  0.6599503E+00 -0.3141516E+01  0.2645470E+06 -0.1395830E-07  0.1640918E+02  0.9019967E-04  0.7287564E+05 -0.1570849E+01  0.1907349E-05  0.1570796E+01
  0.1400000E+00  0.1418891E+05 -0.1570796E+01  0.5598221E+00  0.3141496E+01  0.2786630E+07 -0.2600964E-10  0.1005722E+02 -0.1730850E-03  0.1432794E+06 -0.1570797E+01  0.9873375E-04 -0.9917461E-01  0.1684804E+05 -0.1570803E+01  0.1116558E+01 -0.7927299E-04  0.2601641E+06 -0.6568872E-08  0.1277832E+02 -0.2841995E-03  0.9904758E+05 -0.1570838E+01  0.1907349E-05  0.1570796E+01
  0.1600000E+00  0.1851714E+05 -0.1570798E+01  0.3842173E-01  0.3139297E+01  0.2782194E+07 -0.1988111E-09  0.1199846E+02 -0.3141563E+01  0.1868627E+06 -0.1570795E+01  0.9025062E-04 -0.5710202E+00  0.2179887E+05 -0.1570796E+01  0.3115675E+00  0.3140395E+01  0.2552215E+06 -0.7174374E-09  0.2685547E+02  0.3141479E+01  0.1291501E+06 -0.1570669E+01  0.1335144E-04  0.1570796E+01
  0.1800000E+00  0.2341361E+05 -0.1570795E+01  0.3845215E+00  0.3141356E+01  0.2777144E+07  0.1435417E-09  0.7409546E+01 -0.2286031E-03  0.2360992E+06 -0.1570797E+01  0.8973220E-04  0.3183285E+00  0.2729641E+05 -0.1570801E+01  0.8999005E+00 -0.3141230E+01  0.2497245E+06  0.5377020E-08  0.1125098E+02  0.3140736E+01  0.1631371E+06 -0.1570811E+01  0.2670288E-04 -0.1570796E+01
  0.2000000E+00  0.2887465E+05 -0.1570797E+01  0.5458908E+00 -0.1850734E-03  0.2771465E+07  0.5368034E-10  0.1232788E+01 -0.3824442E-03  0.2909279E+06 -0.1570798E+01  0.9024536E-04 -0.2889169E+01  0.3330136E+05 -0.1570796E+01  0.1212021E+01  0.3140891E+01  0.2437160E+06  0.7087326E-07  0.1245217E+02 -0.3139725E+01  0.2009611E+06 -0.1570805E+01  0.1144409E-04  0.1570796E+01
  0.2200000E+00  0.3489628E+05 -0.1570796E+01  0.5335541E+00 -0.5174521E-03  0.2765148E+07  0.1040191E-08  0.3099731E+01  0.1361027E-03  0.3512813E+06 -0.1570797E+01  0.1288483E-03  0.2540556E+01  0.3977102E+05 -0.1570806E+01  0.4524479E+00 -0.3188063E-03  0.2372460E+06 -0.1381515E-06  0.1767774E+02  0.3141120E+01  0.2425634E+06 -0.1570813E+01  0.5722046E-05  0.1570796E+01
  0.2400000E+00  0.4147393E+05 -0.1570797E+01  0.2940525E+00  0.1605390E-02  0.2758186E+07  0.1425920E-08  0.6599304E+01 -0.3771746E-04  0.4170838E+06 -0.1570796E+01  0.2218883E-03  0.6154894E+00  0.4666052E+05 -0.1570793E+01  0.1012619E+01 -0.6945699E-03  0.2303556E+06  0.1340701E-06  0.2831739E+02 -0.3140948E+01  0.2878758E+06 -0.1570810E+01  0.6675720E-05 -0.1570796E+01
  0.2600000E+00  0.4860218E+05 -0.1570795E+01  0.4554603E+00 -0.3139912E+01  0.2750563E+07  0.3994211E-09  0.1176138E+02 -0.4747539E-04  0.4882522E+06 -0.1570795E+01  0.1548410E-03 -0.1292138E+01  0.5392291E+05 -0.1570787E+01  0.6413676E-01 -0.3138797E+01  0.2230830E+06  0.7222999E-07  0.1677891E+01  0.1364147E-01  0.3368327E+06 -0.1570803E+01  0.9536743E-05 -0.1570796E+01
  0.2800000E+00  0.5627545E+05 -0.1570796E+01  0.3016909E-01  0.3128802E+01  0.2742266E+07  0.9737525E-09  0.9149033E+01 -0.4594278E-04  0.5646949E+06 -0.1570796E+01  0.2745679E-04  0.9832057E-01  0.6150962E+05 -0.1570796E+01  0.8782401E-01 -0.1802583E-02  0.2154941E+06 -0.1382180E-06  0.1110694E+02 -0.1296874E-02  0.3893435E+06 -0.1570816E+01  0.1716614E-04  0.1570796E+01
  0.3000000E+00  0.6448674E+05 -0.1570796E+01  0.1867687E+00 -0.3476038E-02  0.2733284E+07 -0.1311908E-09  0.8505845E+01  0.3141194E+01  0.6463093E+06 -0.1570796E+01  0.1866575E-03 -0.1829641E+01  0.6937144E+05 -0.1570796E+01  0.6151066E+00 -0.3141387E+01  0.2076296E+06  0.1452171E-06  0.1131402E+02 -0.3069560E-02  0.4453224E+06 -0.1570789E+01  0.1907349E-05 -0.1570796E+01
  0.3200000E+00  0.7322904E+05 -0.1570796E+01  0.7012101E+00  0.3944119E-03  0.2723597E+07 -0.1546273E-08  0.8100739E+01 -0.5663838E-03  0.7329918E+06 -0.1570796E+01  0.2599244E-03 -0.6028555E+00  0.7745832E+05 -0.1570799E+01  0.2574997E+00  0.3141552E+01  0.1995349E+06 -0.1400963E-06  0.1939460E+01  0.3139012E+01  0.5046678E+06 -0.1570795E+01  0.2670288E-04  0.1570796E+01
  0.3400000E+00  0.8249448E+05 -0.1570797E+01  0.3362887E+00  0.1085433E-02  0.2713196E+07  0.2896317E-09  0.3958840E+00  0.3120713E+01  0.8246231E+06 -0.1570796E+01  0.3881185E-03  0.1520503E+01  0.8572084E+05 -0.1570795E+01  0.5462095E+00 -0.5927625E-03  0.1912685E+06 -0.2220986E-06  0.1130421E+02 -0.3140286E+01  0.5672748E+06 -0.1570803E+01  0.4005432E-04 -0.1570796E+01
  0.3600000E+00  0.9227342E+05 -0.1570796E+01  0.2104979E-01  0.5221500E-02  0.2702059E+07  0.1759071E-08  0.8943925E+01 -0.3141176E+01  0.9210756E+06 -0.1570795E+01  0.2761102E-03  0.1537024E+01  0.9410952E+05 -0.1570799E+01  0.3769550E+00  0.4933387E-04  0.1828690E+06  0.3137384E-07  0.1694948E+01  0.1209967E-01  0.6330216E+06 -0.1570796E+01  0.3814697E-05 -0.1570796E+01
  0.3800000E+00  0.1025566E+06 -0.1570797E+01  0.4426134E-01  0.1206091E-01  0.2690174E+07 -0.2144033E-08  0.7809808E+01 -0.3141007E+01  0.1022216E+07 -0.1570796E+01  0.3278051E-03 -0.1662595E+01  0.1025765E+06 -0.1570794E+01  0.1328395E+00 -0.3139532E+01  0.1743902E+06 -0.1539965E-07  0.4790083E+00  0.3077584E+01  0.7017812E+06 -0.1570802E+01  0.4577637E-04 -0.1570796E+01
  0.4000000E+00  0.1133326E+06 -0.1570796E+01  0.1179353E+00  0.1099754E-02  0.2677526E+07 -0.6610652E-09  0.5718090E+01  0.1100761E-02  0.1127900E+07 -0.1570796E+01  0.4074614E-03  0.1205410E+01  0.1110751E+06 -0.1570796E+01  0.5486388E+00 -0.3139366E+01  0.1658825E+06 -0.2546160E-06  0.2046286E+01  0.3651671E-01  0.7734217E+06 -0.1570805E+01  0.9536743E-05 -0.1570796E+01
  0.4200000E+00  0.1245903E+06 -0.1570796E+01  0.6704487E+00 -0.1117328E-02  0.2664089E+07  0.3482370E-08  0.3458613E+01 -0.1194226E-02  0.1237972E+07 -0.1570796E+01  0.2751020E-03  0.1729873E+01  0.1195605E+06 -0.1570796E+01  0.1698887E+00  0.9023860E-02  0.1573763E+06 -0.1861581E-06  0.9610841E+01  0.3141161E+01  0.8477924E+06 -0.1570794E+01  0.3814697E-05  0.1570796E+01
  0.4400000E+00  0.1363157E+06 -0.1570796E+01  0.7668880E-01 -0.3129340E+01  0.2649855E+07  0.6783335E-08  0.1881791E+01  0.3138596E+01  0.1352270E+07 -0.1570797E+01  0.6132674E-04 -0.7867401E+00  0.1279903E+06 -0.1570796E+01  0.7369111E+00 -0.4620783E-02  0.1489336E+06 -0.2622814E-07  0.1184720E+02  0.3139202E+01  0.9247406E+06 -0.1570792E+01  0.3814697E-04 -0.1570796E+01
  0.4600000E+00  0.1484959E+06 -0.1570796E+01  0.7255774E-01  0.3096218E+01  0.2634800E+07 -0.2553942E-08  0.2116574E+01 -0.3136498E+01  0.1470618E+07 -0.1570797E+01  0.4889757E-03 -0.1551148E+01  0.1363246E+06 -0.1570794E+01  0.4264728E+00  0.3138459E+01  0.1405785E+06 -0.2396627E-06  0.1965833E+01 -0.3539478E-02  0.1004102E+07 -0.1570794E+01  0.5722046E-04  0.1570796E+01
  0.4800000E+00  0.1611147E+06 -0.1570796E+01  0.5100136E+00  0.2402821E-03  0.2618905E+07 -0.2330560E-10  0.7478974E+01 -0.3141105E+01  0.1592841E+07 -0.1570796E+01  0.4081300E-03  0.1777229E+01  0.1445259E+06 -0.1570799E+01  0.6927034E+00 -0.5589576E-03  0.1323482E+06 -0.2527218E-06  0.4871712E+01 -0.3134301E+01  0.1085707E+07 -0.1570795E+01  0.1029968E-03 -0.1570796E+01
  0.5000000E+00  0.1741561E+06 -0.1570796E+01  0.7114302E-01  0.8760300E-02  0.2602156E+07 -0.8795852E-09  0.1138890E+02  0.1224237E-03  0.1718734E+07 -0.1570797E+01  0.1339815E-03  0.1513495E+01  0.1525602E+06 -0.1570798E+01  0.3209999E+00 -0.3133986E+01  0.1242873E+06 -0.9684119E-06  0.8341866E+01 -0.3130032E+01  0.1169374E+07 -0.1570798E+01  0.3814697E-05  0.1570796E+01
  0.5200000E+00  0.1876016E+06 -0.1570796E+01  0.6090512E+00 -0.1273025E-02  0.2584537E+07 -0.4038252E-08  0.1803392E+01 -0.1077741E-02  0.1848100E+07 -0.1570796E+01  0.4689464E-03 -0.1814328E+01  0.1603968E+06 -0.1570797E+01  0.5471606E+00  0.3138628E+01  0.1164151E+06  0.1950356E-06  0.3265814E+01  0.3107497E+01  0.1254916E+07 -0.1570795E+01  0.7629395E-05  0.1570796E+01
  0.5400000E+00  0.2014320E+06 -0.1570797E+01  0.1676289E+00 -0.6454441E-02  0.2566025E+07 -0.4543103E-08  0.8199723E+01  0.3141026E+01  0.1980717E+07 -0.1570796E+01  0.7730447E-03 -0.1594889E+01  0.1680079E+06 -0.1570794E+01  0.3556140E+00 -0.3138930E+01  0.1087677E+06 -0.4623888E-06  0.4197595E+01  0.6368785E-02  0.1342142E+07 -0.1570790E+01  0.6103516E-04 -0.1570796E+01
  0.5600000E+00  0.2156268E+06 -0.1570796E+01  0.2233221E-01 -0.3132240E+01  0.2546604E+07  0.1581840E-08  0.6439756E+01  0.2014789E-02  0.2116367E+07 -0.1570796E+01  0.8900893E-03 -0.1518046E+01  0.1753692E+06 -0.1570796E+01  0.2620929E+00 -0.1453657E-02  0.1013682E+06  0.2408453E-06  0.6002275E+01  0.5104695E-02  0.1430852E+07 -0.1570796E+01  0.1525879E-04  0.1570796E+01
  0.5800000E+00  0.2301631E+06 -0.1570796E+01  0.4648718E+00  0.2433055E-02  0.2526260E+07  0.7852091E-09  0.6616474E+00 -0.3115092E+01  0.2254813E+07 -0.1570796E+01  0.5540150E-03  0.1585267E+01  0.1824605E+06 -0.1570796E+01  0.4332783E+00 -0.9376545E-03  0.9423159E+05  0.2694492E-06  0.2926028E+01  0.2586853E-01  0.1520844E+07 -0.1570795E+01  0.1525879E-04 -0.1570796E+01
  0.6000000E+00  0.2450177E+06 -0.1570796E+01  0.1438168E+00 -0.1199277E-01  0.2504970E+07  0.4203069E-08  0.9543348E+01 -0.3140486E+01  0.2395802E+07 -0.1570796E+01  0.1825007E-03  0.1571972E+01  0.1892634E+06 -0.1570797E+01  0.1799970E+00  0.3128757E+01  0.8737271E+05  0.2654531E-06  0.7290288E+01 -0.3140454E+01  0.1611906E+07 -0.1570796E+01  0.8529923E-05  0.2034444E+01
  0.6199999E+00  0.2601649E+06 -0.1570796E+01  0.8619474E-01  0.3124160E+01  0.2482722E+07  0.1315242E-08  0.5044394E+01 -0.3137400E+01  0.2539079E+07 -0.1570796E+01  0.2846932E-03 -0.1753727E+01  0.1957644E+06 -0.1570796E+01  0.2136478E+00 -0.3141557E+01  0.8081409E+05 -0.6948336E-07  0.1309587E+01 -0.2778099E-01  0.1703831E+07 -0.1570796E+01  0.7629395E-05  0.0000000E+00
  0.6400000E+00  0.2755771E+06 -0.1570796E+01  0.1766697E+00 -0.1597085E-01  0.2459500E+07  0.3362579E-08  0.2041136E+01 -0.3137095E+01  0.2684379E+07 -0.1570796E+01  0.2802379E-03  0.1497881E+01  0.2019528E+06 -0.1570797E+01  0.4019290E+00 -0.4959034E-03  0.7456006E+05 -0.3536369E-06  0.6701179E+01  0.1475516E-02  0.1796412E+07 -0.1570796E+01  0.4593504E-04  0.1653938E+01
  0.6600000E+00  0.2912253E+06 -0.1570796E+01  0.1588888E+00 -0.6014189E-02  0.2435291E+07 -0.1203013E-07  0.6224785E+01  0.4140404E-02  0.2831426E+07 -0.1570796E+01  0.4707106E-03 -0.1234417E+01  0.2078211E+06 -0.1570797E+01  0.2180787E+00 -0.8693779E-02  0.6861866E+05 -0.3557934E-07  0.8791602E+01  0.8830896E-02  0.1889430E+07 -0.1570797E+01  0.2320390E-04 -0.1405648E+01
  0.6799999E+00  0.3070787E+06 -0.1570796E+01  0.4691255E+00 -0.8491429E-02  0.2410083E+07  0.1101634E-08  0.2745337E+01 -0.3127876E+01  0.2979916E+07 -0.1570796E+01  0.7472469E-03 -0.1670123E+01  0.2133636E+06 -0.1570796E+01  0.3961269E+00  0.8426241E-03  0.6299659E+05 -0.8448499E-06  0.1136793E+02 -0.3140240E+01  0.1982672E+07 -0.1570795E+01  0.4959106E-04 -0.1570796E+01
  0.7000000E+00  0.3231051E+06 -0.1570796E+01  0.3411508E+00 -0.1388551E-01  0.2383860E+07 -0.7053763E-08  0.1316013E+01 -0.1250232E-01  0.3129558E+07 -0.1570796E+01  0.1745957E-02  0.1586335E+01  0.2185791E+06 -0.1570796E+01  0.2444451E-01  0.8190358E-01  0.5769604E+05 -0.5162427E-06  0.5079212E+01  0.1684815E-01  0.2075942E+07 -0.1570798E+01  0.1525879E-04 -0.1570796E+01
  0.7199999E+00  0.3392698E+06 -0.1570796E+01  0.1268981E+00 -0.3121706E+01  0.2356613E+07  0.1605771E-08  0.4543050E+01 -0.1446765E-02  0.3280048E+07 -0.1570796E+01  0.5626363E-03 -0.1640891E+01  0.2234673E+06 -0.1570797E+01  0.8676501E-01 -0.3116469E+01  0.5270979E+05  0.5650782E-06  0.3630811E+01  0.6387971E-02  0.2169019E+07 -0.1570798E+01  0.1907349E-04  0.1570796E+01
  0.7399999E+00  0.3555367E+06 -0.1570796E+01  0.2426655E+00 -0.3069332E-02  0.2328331E+07  0.5767107E-09  0.2505054E+01 -0.1559348E-02  0.3431050E+07 -0.1570796E+01  0.4351707E-03 -0.1474796E+01  0.2280319E+06 -0.1570796E+01  0.1094028E+00  0.3130208E+01  0.4804012E+05  0.1321324E-06  0.4111181E+01 -0.3134734E+01  0.2261706E+07 -0.1570797E+01  0.1537754E-04  0.1695151E+01
  0.7599999E+00  0.3718669E+06 -0.1570796E+01  0.2469302E+00 -0.3138692E+01  0.2299008E+07 -0.3451301E-09  0.1758643E+01  0.3073576E-01  0.3582249E+07 -0.1570796E+01  0.1001476E-02 -0.1384307E+01  0.2322773E+06 -0.1570796E+01  0.7452722E-01  0.3128495E+01  0.4368140E+05  0.9948635E-06  0.1268176E+02  0.3141169E+01  0.2353802E+07 -0.1570797E+01  0.6877043E-05 -0.2553590E+01
  0.7800000E+00  0.3882216E+06 -0.1570796E+01  0.1157801E-01  0.8319412E-02  0.2268636E+07  0.1958604E-07  0.3510426E+00  0.6118026E-02  0.3733302E+07 -0.1570796E+01  0.2035367E-03  0.1287725E+01  0.2362111E+06 -0.1570797E+01  0.2612026E+00  0.3129642E+01  0.3962367E+05 -0.3419624E-06  0.6831638E+01 -0.3138412E+01  0.2445126E+07 -0.1570797E+01  0.5394797E-05 -0.7853982E+00
  0.8000000E+00  0.4045570E+06 -0.1570796E+01  0.1192859E+00 -0.1155283E-01  0.2237218E+07  0.1160837E-07  0.1565559E+01 -0.3133334E+01  0.3883845E+07 -0.1570796E+01  0.1626301E-02 -0.1557620E+01  0.2398404E+06 -0.1570796E+01  0.3582867E-02 -0.2883266E+01  0.3585991E+05  0.1031439E-05  0.6632586E+01 -0.3139329E+01  0.2535490E+07 -0.1570796E+01  0.1916862E-04  0.1471128E+01
  0.8200000E+00  0.4208318E+06 -0.1570796E+01  0.1050666E+00 -0.2495487E-01  0.2204738E+07 -0.1038136E-07  0.5677841E+01  0.3133741E+01  0.4033539E+07 -0.1570796E+01  0.2361034E-02 -0.1575928E+01  0.2431757E+06 -0.1570796E+01  0.2352201E+00 -0.2436692E-02  0.3237940E+05 -0.4637099E-06  0.3862747E+01  0.3133155E+01  0.2624707E+07 -0.1570796E+01  0.3454355E-04 -0.1681454E+01
  0.8399999E+00  0.4369979E+06 -0.1570796E+01  0.1277108E+00  0.3095457E+01  0.2171207E+07  0.3513896E-08  0.5163423E+01 -0.3125539E+01  0.4182010E+07 -0.1570796E+01  0.7665659E-03 -0.1707953E+01  0.2462278E+06 -0.1570797E+01  0.1224151E+00 -0.3139894E+01  0.2917038E+05 -0.1033629E-05  0.6750867E+01 -0.3132877E+01  0.2712623E+07 -0.1570796E+01  0.2671990E-04 -0.1535097E+01
  0.8600000E+00  0.4530087E+06 -0.1570796E+01  0.6496585E+00  0.9717913E-03  0.2136622E+07 -0.1913935E-08  0.2497809E+01 -0.3128080E+01  0.4328890E+07 -0.1570796E+01  0.1578543E-03 -0.2290749E+01  0.2490083E+06 -0.1570796E+01  0.4674005E+00  0.3530374E-02  0.2622107E+05  0.1233689E-05  0.7078270E+01 -0.3135893E+01  0.2799080E+07 -0.1570796E+01  0.3814697E-05  0.1570796E+01
  0.8799999E+00  0.4688153E+06 -0.1570796E+01  0.5609758E+00  0.3134753E+01  0.2100988E+07  0.3486083E-09  0.2342867E+01  0.3135722E+01  0.4473798E+07 -0.1570796E+01  0.9050631E-03  0.1649252E+01  0.2515294E+06 -0.1570797E+01  0.2596002E+00  0.8426482E-02  0.2351888E+05 -0.1141868E-05  0.1243026E+01  0.4861124E-02  0.2883940E+07 -0.1570796E+01  0.8148197E-05  0.1929567E+01
  0.9000000E+00  0.4843657E+06 -0.1570796E+01  0.1136537E+00  0.3123954E+01  0.2064312E+07  0.1629132E-07  0.5216331E+00 -0.3035357E-01  0.4616352E+07 -0.1570796E+01  0.5469496E-03  0.1806013E+01  0.2538047E+06 -0.1570796E+01  0.7940805E-02  0.3353804E+00  0.2105015E+05  0.4407258E-06  0.2134832E+01 -0.2230033E-02  0.2967049E+07 -0.1570796E+01  0.2674117E-04 -0.1517276E+01
  0.9200000E+00  0.4996086E+06 -0.1570796E+01  0.3706013E-01 -0.1606474E+00  0.2026606E+07 -0.1415496E-08  0.1195963E+02  0.2550601E-02  0.4756161E+07 -0.1570796E+01  0.1080536E-02 -0.1626405E+01  0.2558466E+06 -0.1570796E+01  0.8251884E-01 -0.3135910E+01  0.1880016E+05  0.8635752E-06  0.2025371E+01 -0.3284753E-02  0.3048284E+07 -0.1570796E+01  0.9584308E-05  0.1670465E+01
  0.9400000E+00  0.5144875E+06 -0.1570796E+01  0.3665731E+00  0.1110904E-01  0.1987876E+07 -0.6478482E-08  0.1258912E+01 -0.3925209E-01  0.4892837E+07 -0.1570796E+01  0.8910592E-03  0.1526180E+01  0.2576687E+06 -0.1570796E+01  0.1282360E+00  0.1935009E-01  0.1675698E+05 -0.5245017E-06  0.7996125E+01  0.3816546E-03  0.3127551E+07 -0.1570796E+01  0.1144409E-04 -0.1570796E+01
  0.9599999E+00  0.5289504E+06 -0.1570796E+01  0.4853414E+00  0.2261666E-02  0.1948144E+07 -0.3104793E-07  0.3394893E+01  0.3130495E+01  0.5025972E+07 -0.1570796E+01  0.1227583E-02 -0.1480362E+01  0.2592843E+06 -0.1570796E+01  0.2037890E+00 -0.3138619E+01  0.1490573E+05  0.9909285E-06  0.1251381E+02 -0.3140120E+01  0.3204739E+07 -0.1570796E+01  0.3053248E-05 -0.6747410E+00
  0.9799999E+00  0.5429358E+06 -0.1570796E+01  0.5517665E+00  0.3136001E+01  0.1907428E+07  0.1676730E-07  0.1126918E+01  0.3125391E+01  0.5155169E+07 -0.1570796E+01  0.3095452E-03 -0.1667270E+01  0.2607066E+06 -0.1570797E+01  0.5470344E-01  0.3132957E+01  0.1323257E+05  0.1033199E-05  0.8762604E+01 -0.3141398E+01  0.3279747E+07 -0.1570796E+01  0.1144968E-04 -0.1602036E+01
  0.9999999E+00  0.5563904E+06 -0.1570796E+01  0.4591754E+00  0.3127432E+01  0.1865744E+07 -0.1616051E-07  0.2477789E+01 -0.3100084E+01  0.5280038E+07 -0.1570796E+01  0.3972793E-03  0.1534460E+01  0.2619477E+06 -0.1570797E+01  0.1823610E+00 -0.3117523E+01  0.1172483E+05 -0.1707447E-05  0.3395369E+01  0.7424157E-02  0.3352526E+07 -0.1570797E+01  0.7629627E-05  0.1562984E+01
  0.1020000E+01  0.5692512E+06 -0.1570796E+01  0.2891991E+00  0.3134694E+01  0.1823118E+07 -0.1265485E-07  0.1314201E+01 -0.3132628E+01  0.5400178E+07 -0.1570796E+01  0.2543684E-03  0.1392128E+01  0.2630203E+06 -0.1570796E+01  0.1146242E+00 -0.3139579E+01  0.1036930E+05 -0.1548055E-05  0.8996273E+01  0.5970355E-03  0.3422980E+07 -0.1570797E+01  0.1147029E-04 -0.1638402E+01
  0.1040000E+01  0.5814591E+06 -0.1570796E+01  0.1915609E+00 -0.3129734E+01  0.1779581E+07  0.3014749E-07  0.2668771E+01  0.1458452E-01  0.5515192E+07 -0.1570796E+01  0.2089170E-02  0.1599341E+01  0.2639359E+06 -0.1570796E+01  0.1904060E+00 -0.1578975E-01  0.9153821E+04  0.3400539E-06  0.6357346E+01 -0.3140584E+01  0.3491064E+07 -0.1570796E+01  0.9536743E-06 -0.1570796E+01
  0.1060000E+01  0.5929560E+06 -0.1570796E+01  0.1365808E+00 -0.1012479E-01  0.1735162E+07 -0.4924566E-09  0.2264580E+01 -0.2435867E-01  0.5624672E+07 -0.1570796E+01  0.1327975E-02 -0.1486411E+01  0.2647064E+06 -0.1570796E+01  0.1245458E+00 -0.3114561E+01  0.8066299E+04 -0.1937072E-05  0.4352042E+01 -0.3169539E-02  0.3556750E+07 -0.1570796E+01  0.7168434E-05  0.1637365E+01
  0.1080000E+01  0.6036781E+06 -0.1570796E+01  0.4615045E-01  0.1326697E-01  0.1689894E+07 -0.3514255E-07  0.1997011E+01  0.4918795E-02  0.5728244E+07 -0.1570796E+01  0.3990214E-03 -0.2244412E+01  0.2653426E+06 -0.1570796E+01  0.1969505E-01  0.2990829E+01  0.7095725E+04  0.7010370E-06  0.1566091E+02 -0.3139373E+01  0.3619992E+07 -0.1570796E+01  0.8109737E-05  0.1600200E+01
  0.1100000E+01  0.6135642E+06 -0.1570796E+01  0.3274750E-01  0.2956545E+01  0.1643817E+07  0.5977954E-08  0.9964865E+00  0.1139664E-01  0.5825522E+07 -0.1570796E+01  0.3950903E-03  0.4648207E+00  0.2658535E+06 -0.1570796E+01  0.5103728E-02 -0.2959843E+01  0.6231230E+04  0.3599678E-05  0.6069062E+01 -0.3137520E+01  0.3680742E+07 -0.1570796E+01  0.8649864E-05 -0.1446441E+01
  0.1120000E+01  0.6225555E+06 -0.1570796E+01  0.1612002E+00  0.1774920E-01  0.1596969E+07 -0.1933900E-07  0.2793299E+01  0.1278258E-02  0.5916134E+07 -0.1570796E+01  0.1751374E-02 -0.1529786E+01  0.2662486E+06 -0.1570796E+01  0.1981949E+00  0.3140923E+01  0.5462937E+04  0.3128325E-06  0.1311336E+02 -0.1304403E-02  0.3739035E+07 -0.1570796E+01  0.6217196E-05 -0.1647568E+01
  0.1140000E+01  0.6305898E+06 -0.1570796E+01  0.9295019E-01 -0.3122734E+01  0.1549401E+07 -0.1638739E-07  0.2645276E+01 -0.3134561E+01  0.5999700E+07 -0.1570796E+01  0.3148930E-03  0.1625767E+01  0.2665376E+06 -0.1570796E+01  0.7637794E-01  0.3123301E+01  0.4781463E+04  0.1276495E-06  0.3378246E+01 -0.2985595E-02  0.3794826E+07 -0.1570797E+01  0.2457562E-05  0.1325818E+01
  0.1160000E+01  0.6376066E+06 -0.1570796E+01  0.4624183E+00 -0.8299044E-02  0.1501157E+07 -0.1118116E-07  0.2369537E+01 -0.3130837E+01  0.6075888E+07 -0.1570796E+01  0.2554117E-02  0.1579033E+01  0.2667274E+06 -0.1570797E+01  0.4152815E-01  0.3806379E-02  0.4178417E+04 -0.7157549E-06  0.1344250E+02  0.3538163E-02  0.3848131E+07 -0.1570796E+01  0.1922192E-05 -0.1695151E+01
  0.1180000E+01  0.6435474E+06 -0.1570796E+01  0.8015883E-01  0.7631200E-01  0.1452290E+07  0.1428913E-08  0.3701591E+01  0.3137052E+01  0.6144325E+07 -0.1570796E+01  0.1861111E-02  0.1489005E+01  0.2668263E+06 -0.1570796E+01  0.2113867E+00 -0.1208522E-02  0.3645527E+04 -0.2105366E-05  0.7467411E+01  0.9828679E-03  0.3898954E+07 -0.1570796E+01  0.7539458E-06  0.1892547E+01
  0.1200000E+01  0.6483532E+06 -0.1570796E+01  0.8957038E-01 -0.3073547E+01  0.1402854E+07 -0.1609791E-07  0.3245387E+01  0.3140403E+01  0.6204710E+07 -0.1570796E+01  0.1664095E-03  0.3042986E+01  0.2668398E+06 -0.1570796E+01  0.1788131E+00 -0.1446057E-01  0.3175591E+04 -0.1624098E-05  0.3553094E+01 -0.4683178E-02  0.3947314E+07 -0.1570796E+01  0.2863505E-05  0.1529154E+01
  0.1220000E+01  0.6519686E+06 -0.1570796E+01  0.2676126E+00 -0.1012073E-02  0.1352908E+07  0.2278259E-07  0.2695383E+01 -0.3128721E+01  0.6256714E+07 -0.1570796E+01  0.2381438E-02  0.1624268E+01  0.2667748E+06 -0.1570797E+01  0.3719439E-01 -0.3612138E-01  0.2761997E+04  0.1254073E-05  0.1083283E+02 -0.3459452E-02  0.3993217E+07 -0.1570796E+01  0.3769729E-06  0.2819842E+01
  0.1240000E+01  0.6543399E+06 -0.1570796E+01  0.1229008E+00 -0.3088911E+01  0.1302519E+07 -0.1030905E-08  0.4550993E+01  0.4780341E-02  0.6300054E+07 -0.1570796E+01  0.1682155E-02 -0.1764519E+01  0.2666360E+06 -0.1570796E+01  0.1090736E+00  0.4034056E-01  0.2398458E+04  0.1857680E-05  0.2262579E+01 -0.3931751E-02  0.4036710E+07 -0.1570796E+01  0.1244582E-05  0.1279340E+01
  0.1260000E+01  0.6554136E+06 -0.1570796E+01  0.1451007E+00 -0.3102358E+01  0.1251746E+07  0.3013369E-07  0.3063165E+01  0.5954030E-02  0.6334450E+07 -0.1570796E+01  0.4833370E-03 -0.1768517E+01  0.2664295E+06 -0.1570796E+01  0.2714890E-01  0.3110236E+01  0.2079539E+04 -0.1838064E-05  0.1592911E+01  0.3140692E+01  0.4077822E+07 -0.1570796E+01  0.1590450E-05 -0.1797595E+01
  0.1280000E+01  0.6551404E+06 -0.1570796E+01  0.3748962E-01  0.2335453E-01  0.1200660E+07 -0.1835132E-07  0.3229597E+01 -0.3560049E-02  0.6359654E+07 -0.1570796E+01  0.4456073E-03 -0.1411837E+01  0.2661585E+06 -0.1570796E+01  0.5832411E-01 -0.3102164E+01  0.1800149E+04 -0.4640830E-05  0.4631584E+01  0.1839160E-02  0.4116573E+07 -0.1570796E+01  0.1192093E-06  0.3141593E+01
  0.1300000E+01  0.6534757E+06 -0.1570796E+01  0.1610262E+00 -0.2071831E-01  0.1149332E+07  0.2055159E-07  0.2247849E+01  0.3111880E+01  0.6375430E+07 -0.1570796E+01  0.1016032E-02  0.1508434E+01  0.2658270E+06 -0.1570796E+01  0.1371853E+00  0.3130194E+01  0.1555819E+04  0.1696708E-05  0.1329714E+02  0.3139682E+01  0.4153009E+07 -0.1570796E+01  0.1851585E-05  0.1506369E+01
  0.1320000E+01  0.6503744E+06 -0.1570796E+01  0.6937855E-01 -0.3120175E+01  0.1097839E+07 -0.2084840E-07  0.5859787E-01  0.2128064E+01  0.6381578E+07 -0.1570796E+01  0.1202325E-02  0.1564749E+01  0.2654385E+06 -0.1570796E+01  0.7828782E-02  0.3095795E+00  0.1342423E+04 -0.1264534E-05  0.5839450E+01 -0.3139656E+01  0.4187142E+07 -0.1570796E+01  0.2149076E-06 -0.9827937E+00
  0.1340000E+01  0.6458002E+06 -0.1570796E+01  0.4379931E+00  0.3134046E+01  0.1046256E+07 -0.5886178E-07  0.1202016E+01 -0.1693188E-01  0.6377933E+07 -0.1570796E+01  0.9449571E-03 -0.1516713E+01  0.2649964E+06 -0.1570796E+01  0.4881489E-01  0.9624826E-01  0.1156383E+04 -0.1649409E-07  0.3503218E+01 -0.1838085E-02  0.4219042E+07 -0.1570796E+01  0.2149076E-06 -0.2553590E+01
  0.1360000E+01  0.6397179E+06 -0.1570796E+01  0.1273586E+00 -0.5434545E-01  0.9946621E+06 -0.9633944E-08  0.1601368E+01 -0.3123726E+01  0.6364334E+07 -0.1570796E+01  0.1748255E-02  0.1555490E+01  0.2645027E+06 -0.1570796E+01  0.9050405E-01 -0.4214852E-01  0.9943821E+03 -0.2136791E-05  0.2941517E+01  0.3128917E+01  0.4248755E+07 -0.1570796E+01  0.2747638E-06 -0.8621700E+00
  0.1380000E+01  0.6320984E+06 -0.1570796E+01  0.5464043E-01 -0.3131993E+01  0.9431414E+06  0.4206458E-08  0.1569360E+01 -0.3125036E+01  0.6340662E+07 -0.1570796E+01  0.1236272E-02 -0.1729600E+01  0.2639599E+06 -0.1570796E+01  0.2136063E-01 -0.3095541E+01  0.8535627E+03  0.4625567E-05  0.2671513E+01 -0.3121089E+01  0.4276288E+07 -0.1570796E+01  0.2980232E-07 -0.1570796E+01
  0.1400000E+01  0.6229159E+06 -0.1570796E+01  0.1472694E+00 -0.3124263E+01  0.8917779E+06 -0.7994038E-07  0.1704007E+01 -0.3115057E+01  0.6306833E+07 -0.1570796E+01  0.1908543E-03  0.1599299E+01  0.2633690E+06 -0.1570796E+01  0.2157985E-01 -0.1230358E+00  0.7313345E+03  0.7941478E-06  0.1266534E+01 -0.3642329E-01  0.4301718E+07 -0.1570796E+01  0.1814335E-06  0.1236060E+01
  0.1420000E+01  0.6121529E+06 -0.1570796E+01  0.1086780E+00 -0.7476562E-02  0.8406566E+06  0.5176676E-07  0.2547944E+01 -0.2497234E-01  0.6262818E+07 -0.1570796E+01  0.1257586E-02  0.1484405E+01  0.2627324E+06 -0.1570796E+01  0.3192713E-01 -0.3509757E-02  0.6254025E+03  0.1603429E-05  0.1894185E+01 -0.1055907E-01  0.4325079E+07 -0.1570796E+01  0.1233853E-06 -0.1066630E+01
  0.1440000E+01  0.5997981E+06 -0.1570796E+01  0.4999714E-01 -0.1403918E+00  0.7898646E+06 -0.3863647E-08  0.1914494E+01 -0.1863726E-01  0.6208578E+07 -0.1570796E+01  0.1316390E-03  0.1009711E+00  0.2620516E+06 -0.1570796E+01  0.1150377E+00 -0.2059287E-02  0.5337516E+03  0.1005934E-05  0.1870968E+01  0.5490480E-01  0.4346382E+07 -0.1570796E+01  0.5967009E-07 -0.4684071E-01
  0.1460000E+01  0.5858431E+06 -0.1570796E+01  0.8210690E-02  0.2253845E+01  0.7394921E+06  0.3425269E-07  0.3569782E+01  0.2255061E-01  0.6144134E+07 -0.1570796E+01  0.1974488E-03  0.9945367E+00  0.2613265E+06 -0.1570796E+01  0.4202186E-01 -0.3113629E+01  0.4545804E+03  0.2084548E-05  0.9418283E-01  0.2027978E+00  0.4365730E+07 -0.1570796E+01  0.1105727E-06  0.2140110E+01
  0.1480000E+01  0.5702904E+06 -0.1570796E+01  0.1853412E-01 -0.3007511E+01  0.6896269E+06  0.7965415E-09  0.9900761E+00  0.3656863E-01  0.6069557E+07 -0.1570796E+01  0.1466864E-02  0.1565532E+01  0.2605594E+06 -0.1570796E+01  0.6018955E-01  0.3128529E+01  0.3863137E+03 -0.5292175E-06  0.1109922E+01 -0.3116347E+01  0.4383080E+07 -0.1570796E+01  0.8195639E-07 -0.1570796E+01
  0.1500000E+01  0.5531469E+06 -0.1570796E+01  0.7684463E-01  0.3007306E+01  0.6403608E+06  0.1013185E-06  0.3473779E+00 -0.3005498E+01  0.5984931E+07 -0.1570796E+01  0.6533879E-03  0.1595573E+01  0.2597500E+06 -0.1570796E+01  0.8102825E-01 -0.6493434E-02  0.3275555E+03  0.2348116E-05  0.2834103E+00  0.3050831E+01  0.4398540E+07 -0.1570796E+01  0.3332001E-07 -0.4636476E+00
  0.1520000E+01  0.5344282E+06 -0.1570796E+01  0.3864566E-01  0.8459627E-01  0.5917822E+06  0.1227341E-07  0.8954132E+00 -0.3131402E+01  0.5890398E+07 -0.1570796E+01  0.9113693E-03  0.1413735E+01  0.2588992E+06 -0.1570796E+01  0.2255437E-01 -0.3282471E-01  0.2770779E+03  0.7899158E-06  0.2759872E+01 -0.3140832E+01  0.4412122E+07 -0.1570796E+01  0.6664002E-07 -0.2034444E+01
  0.1540000E+01  0.5141587E+06 -0.1570796E+01  0.2091989E-01 -0.1064184E+00  0.5439839E+06 -0.3444549E-07  0.4031087E-01 -0.2031608E+01  0.5786118E+07 -0.1570796E+01  0.6798680E-04 -0.2871679E+01  0.2580079E+06 -0.1570796E+01  0.9399135E-01  0.3128364E+01  0.2338039E+03  0.6893424E-06  0.4756312E+01 -0.3378651E-02  0.4423854E+07 -0.1570796E+01  0.1127477E-06 -0.1438245E+01
  0.1560000E+01  0.4923679E+06 -0.1570796E+01  0.7026255E-02 -0.2058605E+00  0.4970531E+06  0.2357646E-07  0.2795010E+01  0.3110150E+01  0.5672337E+07 -0.1570796E+01  0.7318777E-03 -0.1695784E+01  0.2570748E+06 -0.1570796E+01  0.1030634E+00 -0.2587568E-02  0.1967825E+03 -0.1080733E-05  0.6119353E+00 -0.7723786E-02  0.4433784E+07 -0.1570796E+01  0.1275334E-06 -0.1453688E+01