VARIABLES="w (rad/s)"  
"A   1   1" "B   1   1"
"A   1   2" "B   1   2"
"A   1   3" "B   1   3"
"A   1   4" "B   1   4"
"A   1   5" "B   1   5"
"A   1   6" "B   1   6"
"A   2   1" "B   2   1"
"A   2   2" "B   2   2"
"A   2   3" "B   2   3"
"A   2   4" "B   2   4"
"A   2   5" "B   2   5"
"A   2   6" "B   2   6"
Zone t="Motion of body    1 in DoF   1",I=   260,F=POINT
  0.2000000E-01  0.2314371E+06  0.1593033E-06 -0.2837181E-02  0.2707168E-12 -0.3087921E+00 -0.2717560E-04 -0.4238009E-02 -0.1071271E-10  0.1366567E+07  0.2318037E-05  0.9367655E-04  0.9944163E-14  0.4158794E+05  0.1713874E-06  0.4580617E-04 -0.7774403E-12 -0.7190018E+00  0.7364083E-05 -0.3910065E-02 -0.1084118E-09  0.1290434E+06  0.1859560E-04  0.1907349E-05  0.0000000E+00
  0.4000000E-01  0.2315254E+06  0.4981496E-04 -0.1445085E-02  0.2500286E-10 -0.3376465E+00 -0.2359009E-03  0.9894490E-02 -0.1569668E-09  0.1367177E+07  0.5502658E-03 -0.4485042E-04 -0.1159795E-12  0.4163950E+05  0.8531591E-04 -0.1120418E-03 -0.1341013E-09 -0.6754990E+00  0.3900418E-04  0.5043030E-02 -0.1592875E-08  0.1293983E+06  0.4567601E-03  0.2384186E-06  0.8810730E-14
  0.6000000E-01  0.2316868E+06  0.7765830E-03 -0.9423494E-04 -0.1380272E-10 -0.3305054E+00 -0.6175832E-03  0.1658738E-01  0.2862129E-09  0.1368243E+07  0.8201689E-02  0.4400178E-03 -0.8350709E-12  0.4173471E+05  0.1386285E-02  0.5262643E-03 -0.2835031E-09 -0.7663879E+00 -0.1805155E-04  0.3814697E-03  0.2429006E-08  0.1302176E+06  0.5880445E-02 -0.1192093E-06  0.3410605E-12
  0.8000000E-01  0.2318804E+06  0.5755808E-02 -0.2312660E-04  0.2048728E-09 -0.5175476E+00 -0.1755480E-02 -0.4919052E-02  0.5089205E-08  0.1369639E+07  0.6063511E-01 -0.3854250E-03  0.4077729E-11  0.4184763E+05  0.1054782E-01 -0.6343275E-03 -0.2307024E-09 -0.8730011E+00 -0.6468988E-04 -0.1247406E-02 -0.8558854E-08  0.1308373E+06  0.5122963E-01 -0.9536743E-06 -0.2764864E-11
  0.9999999E-01  0.2321487E+06  0.2741566E-01 -0.2371967E-03 -0.5449692E-09 -0.4607239E+00 -0.3066603E-02  0.1961470E-02 -0.1084118E-08  0.1371512E+07  0.2855355E+00 -0.2824191E-03  0.8659270E-10  0.4200466E+05  0.5013558E-01  0.4810691E-03  0.3056993E-08 -0.9142532E+00  0.3157275E-03  0.8468628E-03 -0.1080334E-07  0.1318924E+06  0.2432647E+00  0.7152557E-06  0.7275957E-12
  0.1200000E+00  0.2324951E+06  0.9818207E-01  0.7650256E-04  0.7072231E-10 -0.5091553E+00 -0.3858965E-02  0.1493573E-02 -0.8369680E-08  0.1373869E+07  0.1022386E+01 -0.1357264E-03  0.1197960E-09  0.4221367E+05  0.1786372E+00 -0.5665421E-03 -0.2296729E-08 -0.8240433E+00 -0.1740342E-03  0.2655029E-02 -0.1374632E-06  0.1334714E+06  0.8637452E+00 -0.1192093E-05 -0.7683412E-10
  0.1400000E+00  0.2328765E+06  0.2882605E+00  0.2456248E-02 -0.1969019E-08 -0.4854584E+00 -0.6761302E-02  0.8490682E-03 -0.1225417E-07  0.1376631E+07  0.3001214E+01 -0.9431761E-04 -0.1100780E-09  0.4243913E+05  0.5210689E+00  0.1184046E-03 -0.1097578E-07 -0.9292831E+00 -0.5109319E-03  0.5329132E-02  0.7126852E-06  0.1348569E+06  0.2494216E+01 -0.1072884E-05 -0.1140870E-09
  0.1600000E+00  0.2333458E+06  0.7324560E+00  0.5546808E-03 -0.1471490E-08 -0.4726868E+00 -0.7279920E-02 -0.2274334E-02  0.1078192E-06  0.1379880E+07  0.7612676E+01  0.3572199E-03 -0.1013777E-08  0.4272311E+05  0.1312619E+01  0.6517768E-04  0.1230044E-07 -0.9443893E+00 -0.6102896E-03  0.3318787E-02 -0.1680851E-06  0.1367137E+06  0.6203764E+01  0.2503395E-05 -0.7450580E-10
  0.1800000E+00  0.2338835E+06  0.1666282E+01 -0.1185268E-02 -0.2540764E-08 -0.5549927E+00 -0.1246567E-01 -0.5980730E-03  0.2388842E-06  0.1383665E+07  0.1728016E+02  0.4260802E-03 -0.6251823E-08  0.4305022E+05  0.2957721E+01  0.2041310E-03 -0.1377251E-07 -0.9715042E+00  0.4987299E-03  0.1594543E-02 -0.1609325E-07  0.1388715E+06  0.1379730E+02 -0.1072884E-05  0.3352761E-09
  0.2000000E+00  0.2344963E+06  0.3474213E+01  0.5427003E-04 -0.9220093E-08 -0.8925018E+00 -0.2783961E-01 -0.1268625E-01  0.5761627E-06  0.1387990E+07  0.3593548E+02  0.3106580E-03 -0.8476776E-08  0.4343016E+05  0.6101598E+01  0.2214760E-03 -0.2969755E-07 -0.1021904E+01 -0.1424855E-02 -0.1678467E-02 -0.3010034E-05  0.1413610E+06  0.2804950E+02  0.2264977E-05 -0.4656613E-09
  0.2200000E+00  0.2351833E+06  0.6748856E+01 -0.1622468E-02 -0.4051719E-07 -0.1235367E+01 -0.4758602E-01 -0.3957808E-02 -0.2216408E-06  0.1392944E+07  0.6963240E+02 -0.1875669E-03 -0.2917064E-07  0.4387069E+05  0.1171704E+02  0.5580932E-03 -0.1552305E-06 -0.1166336E+01 -0.1492695E-02  0.4417419E-02 -0.1009703E-05  0.1443661E+06  0.5309484E+02 -0.7152557E-06  0.0000000E+00
  0.2400000E+00  0.2359754E+06  0.1236642E+02 -0.1219973E-02 -0.9125098E-07 -0.1307175E+01 -0.6801426E-01 -0.1831234E-02 -0.1209565E-05  0.1398484E+07  0.1272335E+03 -0.1383016E-03  0.3497757E-07  0.4436585E+05  0.2120212E+02 -0.2542734E-03  0.1430511E-07 -0.1180145E+01  0.5863266E-02  0.1411438E-02  0.1145840E-04  0.1476275E+06  0.9458951E+02  0.4768372E-06 -0.8940697E-09
  0.2600000E+00  0.2368396E+06  0.2157441E+02 -0.1536161E-02 -0.9165145E-07 -0.1470093E+01 -0.9387828E-01  0.1909941E-02 -0.3523799E-05  0.1404674E+07  0.2212539E+03 -0.2872606E-03 -0.3597929E-07  0.4490931E+05  0.3648858E+02 -0.1468211E-03 -0.2019480E-06 -0.1275658E+01  0.4081220E-02  0.4577637E-04 -0.2656221E-04  0.1510384E+06  0.1600746E+03  0.5960464E-06  0.1452863E-08
  0.2800000E+00  0.2377852E+06  0.3609595E+02 -0.2452493E-02 -0.1079589E-05 -0.1882996E+01 -0.1455887E+00 -0.6685168E-02  0.7348507E-06  0.1411566E+07  0.3689274E+03  0.5295141E-05  0.1436857E-06  0.4552178E+05  0.6015747E+02 -0.2636462E-03 -0.6615743E-06 -0.1286385E+01  0.9020900E-02 -0.7476807E-03 -0.8678437E-05  0.1548458E+06  0.2594310E+03  0.5960464E-06  0.1356006E-07
  0.3000000E+00  0.2388621E+06  0.5824434E+02 -0.1031041E-02  0.3822148E-06 -0.1852463E+01 -0.1777677E+00 -0.2299547E-03  0.1163576E-04  0.1419251E+07  0.5931805E+03 -0.3769517E-03 -0.3396790E-07  0.4621996E+05  0.9557395E+02  0.4486144E-03  0.4998408E-06 -0.1126816E+01  0.8485008E-02  0.2487183E-02  0.2417564E-04  0.1593643E+06  0.4051310E+03  0.2384186E-06 -0.6705523E-08
  0.3200000E+00  0.2400133E+06  0.9107335E+02 -0.1670569E-03  0.1162589E-05 -0.1482712E+01 -0.1787522E+00 -0.2327693E-01 -0.2360344E-05  0.1427676E+07  0.9238966E+03 -0.2238079E-03 -0.1387829E-06  0.4697249E+05  0.1469890E+03 -0.4276633E-03 -0.1765192E-05 -0.1090080E+01  0.1436707E-01 -0.4028320E-02  0.2174377E-04  0.1639412E+06  0.6120900E+03 -0.1072884E-05 -0.5483627E-07
  0.3400000E+00  0.2413029E+06  0.1384943E+03  0.6907508E-03  0.7105619E-06 -0.1172028E+01 -0.2035997E+00 -0.3585219E-02 -0.2155751E-05  0.1437029E+07  0.1399317E+04  0.2453481E-03 -0.3332158E-06  0.4782479E+05  0.2196701E+03 -0.7749200E-03  0.7210113E-06 -0.1109779E+01  0.1818050E-01 -0.8392334E-04 -0.3388405E-04  0.1694357E+06  0.8990109E+03 -0.9536743E-06  0.3546477E-07
  0.3600000E+00  0.2426893E+06  0.2054755E+03 -0.2328753E-03 -0.1393408E-05 -0.7657623E+00 -0.2150676E+00  0.3269441E-02  0.3179759E-05  0.1447195E+07  0.2067018E+04 -0.5051481E-03 -0.4973988E-06  0.4872156E+05  0.3199756E+03  0.9793043E-04  0.1877546E-07 -0.8225784E+00  0.3339604E-01  0.3654480E-02  0.4428864E-04  0.1748576E+06  0.1287349E+04  0.1430511E-05 -0.3755093E-07
  0.3800000E+00  0.2442250E+06  0.2982029E+03 -0.2838172E-02 -0.1412779E-05 -0.7927856E+00 -0.2894266E+00 -0.1393680E-02  0.5180851E-04  0.1458370E+07  0.2986353E+04  0.6014835E-03  0.6431022E-06  0.4972940E+05  0.4555417E+03 -0.2679527E-03  0.2187118E-05 -0.3249588E+00  0.7274343E-01  0.2143860E-02 -0.2790451E-04  0.1812473E+06  0.1803055E+04  0.2861023E-05 -0.4529953E-07
  0.4000000E+00  0.2458658E+06  0.4242741E+03  0.4874431E-03  0.5105138E-05 -0.7659454E+00 -0.3551657E+00 -0.9094670E-02  0.3200769E-04  0.1470429E+07  0.4228289E+04  0.1175092E-02 -0.4462396E-06  0.5078886E+05  0.6352082E+03  0.4310012E-03 -0.2150238E-05  0.1013641E+00  0.1315544E+00  0.5867004E-02 -0.1132965E-03  0.1876808E+06  0.2476013E+04  0.2145767E-05 -0.7152558E-07
  0.4200000E+00  0.2476707E+06  0.5928195E+03 -0.1374356E-02  0.3051013E-06 -0.4558868E+00 -0.3189617E+00  0.1857623E-02  0.1930118E-04  0.1483574E+07  0.5878948E+04  0.7216966E-03  0.2692686E-05  0.5193702E+05  0.8692311E+03 -0.4513562E-03 -0.2129450E-05  0.2175903E+00  0.1412091E+00 -0.1296997E-02 -0.5327225E-04  0.1949911E+06  0.3341787E+04 -0.2145767E-05 -0.7510185E-07
  0.4400000E+00  0.2495794E+06  0.8148868E+03  0.2790131E-02  0.2589822E-06  0.2188873E+00 -0.2125673E-01  0.2243948E-01  0.5719900E-04  0.1497690E+07  0.8039349E+04  0.4217223E-03 -0.6893237E-06  0.5315813E+05  0.1169147E+04  0.5130768E-03 -0.1345560E-04  0.5405273E+00  0.8569244E-01  0.6111145E-02 -0.5874634E-04  0.2027378E+06  0.4440402E+04 -0.1668930E-05  0.1835823E-06
  0.4600000E+00  0.2516651E+06  0.1103298E+04  0.3089294E-02 -0.4829019E-05  0.4679565E+00  0.2023587E+00  0.6996512E-02 -0.2175629E-04  0.1512794E+07  0.1082456E+05 -0.4944450E-04 -0.2312372E-05  0.5444164E+05  0.1547878E+04  0.2694726E-03 -0.1852095E-04  0.7395172E+00 -0.2832447E-01 -0.3723145E-02 -0.3527069E-03  0.2110927E+06  0.5820090E+04  0.1668930E-05 -0.3015995E-06
  0.4800000E+00  0.2538845E+06  0.1473214E+04  0.1591295E-03 -0.7116795E-05  0.1236740E+01  0.6918099E+00  0.1348078E-01 -0.7189751E-04  0.1528946E+07  0.1437270E+05  0.1487579E-03  0.5801320E-05  0.5579657E+05  0.2019542E+04 -0.2297163E-03  0.1031399E-04  0.1259354E+01 -0.1637750E+00 -0.4821777E-02 -0.3414917E-03  0.2201431E+06  0.7537278E+04 -0.1430511E-05 -0.1430512E-06
  0.5000000E+00  0.2562349E+06  0.1942002E+04  0.1833737E-03  0.4343688E-05  0.4341583E+00  0.5986547E+00  0.4364073E-02 -0.1512319E-03  0.1546012E+07  0.1883379E+05  0.5718090E-04 -0.2665917E-05  0.5717178E+05  0.2599242E+04 -0.3430247E-04 -0.2603978E-05  0.1254227E+01 -0.2157287E+00  0.5790710E-02  0.1697540E-03  0.2294130E+06  0.9652810E+04 -0.2384186E-05  0.0000000E+00
  0.5200000E+00  0.2587516E+06  0.2529169E+04  0.9860992E-03  0.7035732E-05 -0.1106171E+01  0.1936400E+00  0.2811730E-02 -0.1544607E-03  0.1564040E+07  0.2437928E+05  0.2365207E-03 -0.1353023E-04  0.5860406E+05  0.3303397E+04  0.1222193E-03 -0.2065003E-05  0.1123657E+01 -0.2640546E+00 -0.9231567E-03  0.7736206E-04  0.2397819E+06  0.1224787E+05  0.2384186E-05  0.4029274E-06
  0.5400000E+00  0.2613912E+06  0.3257338E+04 -0.1349151E-03  0.1907050E-05 -0.1733841E+01 -0.1586640E+00  0.1902783E-01  0.2253377E-03  0.1582902E+07  0.3120101E+05 -0.4395331E-03  0.8002474E-05  0.6006465E+05  0.4148823E+04  0.7647872E-03 -0.1906246E-04  0.7539978E+00 -0.2183430E+00  0.1052856E-02 -0.2739715E-03  0.2506690E+06  0.1540861E+05 -0.2384186E-06 -0.7402896E-06
  0.5600000E+00  0.2641506E+06  0.4150975E+04 -0.3495216E-03 -0.9562969E-05 -0.2290344E+00  0.4140426E+00 -0.1212239E-02  0.6917047E-03  0.1602446E+07  0.3950020E+05 -0.3830015E-03 -0.1906060E-04  0.6149675E+05  0.5152400E+04  0.4509985E-03  0.8783579E-04  0.5119171E+00 -0.2860626E+00  0.6828308E-02  0.1439819E-02  0.2618157E+06  0.1923104E+05  0.4768372E-06  0.1335144E-05
  0.5800000E+00  0.2670478E+06  0.5236546E+04  0.2906859E-02  0.3042221E-04  0.1122986E+01  0.8986217E+00  0.7170439E-03 -0.4331016E-03  0.1622592E+07  0.4949547E+05  0.3421178E-03 -0.4196384E-05  0.6293609E+05  0.6331939E+04  0.5020499E-03  0.4111320E-04  0.2556152E+00 -0.2388818E+00 -0.2067566E-02 -0.2075348E-02  0.2740768E+06  0.2383986E+05 -0.4768372E-06  0.1382828E-06
  0.6000000E+00  0.2700418E+06  0.6544066E+04  0.1347065E-04  0.1646876E-04  0.2362274E+01  0.1382058E+01 -0.1759756E-01 -0.1206279E-03  0.1643176E+07  0.6142736E+05  0.1203857E-03 -0.6845263E-05  0.6433527E+05  0.7703780E+04 -0.4843473E-03  0.6954968E-04 -0.4299927E-01 -0.9138335E-01  0.3494263E-02 -0.9429931E-03  0.2867004E+06  0.2937117E+05  0.7152557E-06  0.7867812E-06
  0.6199999E+00  0.2730962E+06  0.8104240E+04 -0.1750886E-02  0.1893937E-04  0.2221817E+01  0.1131088E+01 -0.2265084E-01  0.1462304E-03  0.1663958E+07  0.7553377E+05 -0.3287206E-03  0.1355252E-04  0.6566109E+05  0.9283636E+04  0.8816123E-03  0.1833886E-04 -0.1798248E+00 -0.3318252E-01  0.6904602E-02  0.2097854E-02  0.2998340E+06  0.3596496E+05 -0.4529953E-05 -0.1256466E-05
  0.6400000E+00  0.2762307E+06  0.9948764E+04 -0.3499269E-02  0.2628326E-04  0.3235367E+01  0.1844331E+01  0.4697323E-02  0.4184723E-03  0.1684634E+07  0.9203672E+05  0.2135363E-03 -0.4586913E-04  0.6688686E+05  0.1108579E+05 -0.8109212E-04  0.6218910E-04  0.5549469E+00  0.1782812E+00 -0.3601074E-02 -0.1518555E-02  0.3135436E+06  0.4379936E+05 -0.3337860E-05 -0.4577637E-06
  0.6600000E+00  0.2794109E+06  0.1211121E+05 -0.3282547E-02  0.1474428E-03  0.3701721E+01  0.2326902E+01  0.2449155E-01 -0.2626276E-03  0.1705098E+07  0.1112053E+06 -0.6962693E-04  0.2513009E-04  0.6800791E+05  0.1312230E+05 -0.1503438E-02  0.4760027E-05  0.1016052E+01  0.3167468E+00 -0.3280640E-03 -0.3695984E-02  0.3277768E+06  0.5307659E+05 -0.2384186E-06  0.1573563E-06
  0.6799999E+00  0.2825685E+06  0.1462553E+05  0.2937078E-02  0.9362697E-05  0.3362488E+01  0.2321814E+01 -0.3996968E-02 -0.6968927E-03  0.1724937E+07  0.1332610E+06 -0.3808262E-03 -0.2910692E-04  0.6898953E+05  0.1540250E+05 -0.5974770E-03  0.2547383E-04  0.3359833E+00  0.1020685E+00 -0.1052856E-02  0.3247680E-02  0.3422958E+06  0.6397958E+05  0.1907349E-05  0.3242492E-06
  0.7000000E+00  0.2856744E+06  0.1752354E+05 -0.1022875E-02 -0.6458759E-04  0.3136414E+01  0.2582720E+01  0.2246130E-01 -0.1212478E-03  0.1743794E+07  0.1584098E+06  0.2415615E-03  0.3832245E-04  0.6975889E+05  0.1793018E+05  0.4867315E-03 -0.5010963E-04 -0.3207092E+00 -0.1142242E+00  0.4684448E-02 -0.2050781E-02  0.3566376E+06  0.7669359E+05 -0.4768372E-06 -0.1668930E-05
  0.7199999E+00  0.2887213E+06  0.2083473E+05  0.1840353E-02 -0.1101637E-03  0.2627960E+01  0.2338885E+01  0.4044771E-02 -0.6273965E-02  0.1761280E+07  0.1868039E+06  0.4231901E-03  0.1565527E-04  0.7033562E+05  0.2070936E+05  0.4465878E-03 -0.4229307E-04 -0.1027901E+01 -0.4030993E+00  0.4829407E-02 -0.2521362E-02  0.3713789E+06  0.9148663E+05  0.2384186E-06 -0.1373291E-05
  0.7399999E+00  0.2916621E+06  0.2458760E+05 -0.2264977E-02  0.9077310E-04  0.2203323E+01  0.1980592E+01 -0.1122069E-01 -0.5080647E-02  0.1777165E+07  0.2186423E+06  0.4687225E-03 -0.7966879E-04  0.7068470E+05  0.2373547E+05 -0.8317828E-04 -0.6587445E-04 -0.1128319E+01 -0.6156918E+00 -0.6973267E-02 -0.1292877E-02  0.3857845E+06  0.1085825E+06 -0.7152557E-06  0.1411438E-05
  0.7599999E+00  0.2944140E+06  0.2880726E+05 -0.4979253E-02 -0.1544714E-03  0.2107147E+01  0.2225777E+01 -0.7427931E-02 -0.2224750E-02  0.1790964E+07  0.2540102E+06  0.5342099E-03 -0.3711804E-04  0.7077842E+05  0.2700117E+05  0.3587753E-03  0.9189009E-04 -0.1400696E+01 -0.7308807E+00  0.8811951E-03  0.7160949E-02  0.3995615E+06  0.1281373E+06 -0.1311302E-05 -0.1087189E-05
  0.7800000E+00  0.2969134E+06  0.3351006E+05  0.2591014E-02 -0.2266931E-03  0.1959854E+01  0.2407043E+01  0.6191730E-03 -0.9659099E-03  0.1802280E+07  0.2929527E+06  0.5609793E-04 -0.5489285E-04  0.7056859E+05  0.3049089E+05  0.6649345E-03  0.7922173E-04 -0.1139198E+01 -0.6914383E+00  0.3898621E-02  0.3273010E-02  0.4124109E+06  0.1503201E+06  0.1072884E-05  0.1115799E-05
  0.8000000E+00  0.2991601E+06  0.3870796E+05 -0.1827598E-02  0.9765624E-04  0.1450958E+01  0.2091174E+01  0.1118731E-01 -0.4456138E-02  0.1810604E+07  0.3353837E+06  0.6815205E-03  0.1083036E-03  0.7005589E+05  0.3418859E+05 -0.1195014E-02  0.1571178E-04 -0.8451614E+00 -0.6160888E+00 -0.2738953E-02  0.5493163E-03  0.4243526E+06  0.1753450E+06 -0.9536743E-06  0.9536743E-06
  0.8200000E+00  0.3011060E+06  0.4440377E+05  0.1460910E-02 -0.7057667E-04  0.1297058E+01  0.2382674E+01 -0.1506519E-01 -0.4549556E-02  0.1815809E+07  0.3813160E+06  0.5982843E-04  0.1485800E-03  0.6923101E+05  0.3806745E+05 -0.3203005E-03 -0.2424973E-03 -0.5300446E+00 -0.4871878E+00 -0.7907867E-02 -0.9384155E-03  0.4351132E+06  0.2033401E+06 -0.1192093E-05  0.0000000E+00
  0.8399999E+00  0.3026827E+06  0.5059901E+05 -0.6055832E-03  0.1836490E-03  0.8420410E+00  0.2502530E+01  0.1795769E-02  0.6807231E-03  0.1817498E+07  0.4305671E+06  0.3752240E-03  0.8605176E-04  0.6807398E+05  0.4209819E+05 -0.4273206E-03  0.2704167E-03 -0.4118271E+00 -0.4170648E+00 -0.2241135E-02 -0.1627808E-02  0.4434802E+06  0.2344263E+06 -0.5960464E-07  0.3004074E-05
  0.8600000E+00  0.3038291E+06  0.5727864E+05  0.2143383E-03  0.1632118E-03  0.6071167E+00  0.2620568E+01 -0.1912165E-01  0.1628427E-02  0.1815365E+07  0.4829040E+06 -0.1105111E-03 -0.8250719E-06  0.6660182E+05  0.4624889E+05  0.5019754E-03 -0.7245600E-04 -0.8062916E+00 -0.1021355E+01 -0.4005432E-04 -0.4396057E-02  0.4499434E+06  0.2684459E+06 -0.1013279E-05 -0.1845360E-05
  0.8799999E+00  0.3045111E+06  0.6442011E+05 -0.3101826E-03 -0.5916595E-04  0.4045868E+00  0.2766153E+01  0.4901171E-02  0.5652236E-03  0.1809180E+07  0.5380146E+06  0.1013513E-02 -0.2571091E-03  0.6476705E+05  0.5047812E+05  0.7594526E-03  0.4113555E-03 -0.1404884E+01 -0.2031388E+01  0.3262520E-02 -0.5841064E-02  0.4536528E+06  0.3053536E+06  0.1311302E-05  0.1049042E-05
  0.9000000E+00  0.3047258E+06  0.7199349E+05  0.3573895E-03 -0.2124310E-03  0.1579590E+00  0.2510458E+01 -0.2494955E-01 -0.4379511E-02  0.1798736E+07  0.5954364E+06  0.3139156E-03  0.1274096E-03  0.6263522E+05  0.5475304E+05  0.1440600E-02  0.2768576E-03 -0.1587796E+01 -0.2585618E+01  0.1178169E-01 -0.7772827E-02  0.4552431E+06  0.3452785E+06 -0.6258488E-06 -0.1072884E-05
  0.9200000E+00  0.3044474E+06  0.7995550E+05 -0.1856387E-02 -0.3992080E-03 -0.1257324E-01  0.2421163E+01 -0.1417148E-01  0.7992935E-03  0.1784099E+07  0.6549018E+06  0.3222642E-03 -0.3893190E-04  0.6019740E+05  0.5902583E+05 -0.6763581E-03  0.1150931E-02 -0.1260341E+01 -0.2399067E+01  0.6085396E-02  0.3600769E-02  0.4539493E+06  0.3879271E+06 -0.6705523E-07  0.3728866E-05
  0.9400000E+00  0.3036435E+06  0.8827062E+05  0.1035213E-02  0.3108454E-03 -0.1279449E+00  0.2545556E+01 -0.7725239E-02  0.2344675E-02  0.1765198E+07  0.7158819E+06  0.2007169E-03 -0.4957160E-04  0.5746895E+05  0.6325245E+05 -0.4682438E-03  0.4130131E-03 -0.9623852E+00 -0.2023131E+01  0.8017540E-02 -0.4475098E-02  0.4484318E+06  0.4329999E+06 -0.3725290E-07 -0.8964539E-06
  0.9599999E+00  0.3023012E+06  0.9688075E+05 -0.1583159E-02 -0.3982544E-04 -0.2039185E+00  0.2663034E+01 -0.8152723E-03 -0.5239563E-02  0.1742077E+07  0.7778536E+06  0.1626493E-03  0.2861412E-03  0.5449414E+05  0.6739768E+05  0.3626198E-04  0.1790428E-03 -0.6918621E+00 -0.1904634E+01  0.1062202E-01  0.3369140E-02  0.4397294E+06  0.4799676E+06 -0.8940697E-07 -0.2288818E-05
  0.9799999E+00  0.3004199E+06  0.1057264E+06 -0.5175471E-03 -0.5782842E-03 -0.3459320E+00  0.2803548E+01 -0.1679862E-01  0.3251476E-02  0.1714887E+07  0.8402746E+06 -0.6771496E-03  0.5623613E-04  0.5126311E+05  0.7141230E+05  0.5393811E-03  0.9986793E-03 -0.4853210E+00 -0.1591827E+01 -0.3288269E-02 -0.4538421E-02  0.4273571E+06  0.5284666E+06 -0.1490116E-06 -0.3738403E-05
  0.9999999E+00  0.2980116E+06  0.1147464E+06  0.1048207E-02 -0.1021385E-02 -0.4088593E+00  0.3062309E+01 -0.2028108E-02  0.1082086E-01  0.1683818E+07  0.9024861E+06 -0.1204686E-02 -0.2699536E-03  0.4783621E+05  0.7527157E+05  0.7317066E-03 -0.4402101E-03 -0.3321075E+00 -0.1373001E+01 -0.7343292E-03 -0.2311706E-02  0.4116013E+06  0.5782855E+06  0.7748604E-06 -0.7152557E-06
  0.1020000E+01  0.2951090E+06  0.1238715E+06  0.3072917E-03 -0.1816606E-02 -0.3296356E+00  0.3390298E+01 -0.4814088E-02 -0.1158543E-02  0.1649201E+07  0.9641132E+06  0.1126800E-02 -0.4721317E-03  0.4425236E+05  0.7893100E+05  0.1666993E-03  0.3658444E-03 -0.1201096E+00 -0.7240434E+00  0.1934052E-02 -0.4210053E-02  0.3935282E+06  0.6296790E+06  0.4172325E-06 -0.9727478E-06
  0.1040000E+01  0.2917413E+06  0.1330437E+06 -0.1819342E-02 -0.5998039E-03 -0.3300323E+00  0.3437494E+01 -0.2180493E-01 -0.1495666E-02  0.1611341E+07  0.1024609E+07 -0.3521963E-03 -0.7321768E-04  0.4055303E+05  0.8236740E+05 -0.1505613E-03 -0.1301765E-04 -0.6153107E-02 -0.3314746E+00 -0.5836487E-03  0.9442138E-02  0.3709552E+06  0.6811036E+06  0.5364418E-06 -0.1487732E-05
  0.1060000E+01  0.2879153E+06  0.1422046E+06 -0.1212515E-02  0.1511288E-03 -0.4318695E+00  0.3865516E+01 -0.1784161E-02  0.6273613E-02  0.1570577E+07  0.1083465E+07  0.1264864E-03  0.4898648E-04  0.3675339E+05  0.8555561E+05  0.2260655E-03  0.9174817E-03  0.1519012E-01 -0.3486697E+00 -0.6050110E-02 -0.8224639E-02  0.3446974E+06  0.7318732E+06  0.4172325E-06  0.1263618E-05
  0.1080000E+01  0.2836686E+06  0.1512876E+06 -0.1382772E-02 -0.5528354E-03 -0.3463898E+00  0.3841270E+01  0.1308853E-01 -0.1596554E-01  0.1527302E+07  0.1140226E+07  0.1056910E-03  0.6282197E-03  0.3291288E+05  0.8848153E+05  0.3824234E-03  0.3187430E-03  0.3613663E-01 -0.7751129E+00  0.4726410E-02 -0.5780181E-02  0.3157678E+06  0.7819308E+06  0.2384186E-06 -0.7724761E-06
  0.1100000E+01  0.2790423E+06  0.1602346E+06 -0.2278671E-02 -0.2164698E-02 -0.3742523E+00  0.3844008E+01  0.2115706E-01  0.5518484E-02  0.1481934E+07  0.1194488E+07  0.5152872E-03  0.5738164E-03  0.2902617E+05  0.9112151E+05 -0.1232326E-03  0.5458295E-04  0.8864594E-01 -0.9447334E+00 -0.4356384E-02  0.2093887E-02  0.2841592E+06  0.8306935E+06 -0.8344650E-06 -0.1311302E-05
  0.1120000E+01  0.2740826E+06  0.1689932E+06 -0.1776010E-02  0.5698395E-03 -0.2532806E+00  0.3590234E+01 -0.1292109E-02 -0.6729660E-02  0.1434908E+07  0.1245820E+07 -0.6442709E-03  0.5086720E-03  0.2514944E+05  0.9348237E+05  0.8285046E-04 -0.8191109E-04  0.1417503E+00 -0.9820764E+00  0.3433228E-04 -0.7852783E-02  0.2502913E+06  0.8780022E+06 -0.1311302E-05 -0.1201630E-05
  0.1140000E+01  0.2688485E+06  0.1775157E+06 -0.3109992E-02 -0.7164574E-03 -0.1735229E+00  0.3650032E+01 -0.6309032E-02 -0.3647518E-03  0.1386645E+07  0.1294048E+07 -0.7035819E-03 -0.9892782E-04  0.2132145E+05  0.9554560E+05  0.1150370E-04  0.4496714E-03  0.1741867E+00 -0.9797745E+00 -0.1541138E-02 -0.4592285E-02  0.2154358E+06  0.9254957E+06  0.0000000E+00  0.2038479E-05
  0.1160000E+01  0.2633927E+06  0.1857665E+06  0.3591776E-03 -0.1284923E-02 -0.2071533E+00  0.3730050E+01 -0.2209544E-01  0.3850898E-02  0.1337505E+07  0.1338958E+07  0.1216200E-03 -0.7287095E-03  0.1756922E+05  0.9732526E+05  0.3600866E-03  0.1376899E-02  0.1437607E+00 -0.6518450E+00  0.1480103E-02  0.1350082E-01  0.1782080E+06  0.9699462E+06  0.8344650E-06  0.9679793E-06
  0.1180000E+01  0.2577321E+06  0.1937106E+06 -0.2169609E-04 -0.9103965E-03 -0.2500305E+00  0.3777203E+01 -0.6389618E-02 -0.8505287E-02  0.1287870E+07  0.1380346E+07  0.4651897E-04  0.1322274E-03  0.1389587E+05  0.9881801E+05 -0.1139045E-03 -0.1212672E-02  0.5449295E-01 -0.1584338E+00 -0.4539490E-03 -0.1250923E-01  0.1382706E+06  0.1010584E+07 -0.1549721E-05  0.0000000E+00
  0.1200000E+01  0.2519153E+06  0.2013150E+06  0.3221035E-03  0.1600456E-02 -0.3094330E+00  0.3654382E+01 -0.4709482E-02 -0.4891205E-02  0.1238103E+07  0.1418088E+07  0.4131866E-03  0.6130423E-05  0.1033800E+05  0.1000423E+06  0.8124113E-04 -0.5760133E-03 -0.4403687E-01  0.2617721E+00  0.3089905E-03  0.1307831E-01  0.9805141E+05  0.1048476E+07 -0.2026558E-05 -0.2861023E-06
  0.1220000E+01  0.2459830E+06  0.2085550E+06 -0.5280972E-04  0.6509685E-03 -0.2949982E+00  0.3670108E+01  0.5578995E-04 -0.2815628E-02  0.1188531E+07  0.1452114E+07  0.7667455E-04 -0.1526804E-03  0.6895059E+04  0.1010024E+06 -0.1921058E-03  0.3121224E-03 -0.1310730E+00  0.4291668E+00  0.3509521E-03  0.1929520E-01  0.5752897E+05  0.1083364E+07  0.4768372E-06 -0.9453296E-06
  0.1240000E+01  0.2399716E+06  0.2154114E+06  0.1401186E-02  0.1750183E-03 -0.1782990E+00  0.3098770E+01 -0.2314115E-01 -0.1683487E-01  0.1139448E+07  0.1482401E+07  0.5892423E-04 -0.5540205E-03  0.3567716E+04  0.1017119E+06 -0.4421175E-04  0.3544896E-04 -0.9592056E-01  0.4044484E+00 -0.6561279E-03  0.2559051E-02  0.1702365E+05  0.1115212E+07  0.5960464E-07 -0.6651878E-06
  0.1260000E+01  0.2339260E+06  0.2218707E+06 -0.1358747E-02 -0.1312180E-02 -0.1629639E+00  0.2955586E+01 -0.1351357E-02 -0.1416721E-02  0.1091195E+07  0.1508920E+07  0.1454028E-03  0.3284075E-03  0.3895487E+03  0.1022006E+06  0.3701448E-04  0.9060287E-03 -0.1139870E+00  0.3174417E+00  0.1552582E-02  0.1063442E-01 -0.2364171E+05  0.1144416E+07  0.4768372E-06  0.1201630E-05
  0.1280000E+01  0.2278862E+06  0.2279342E+06  0.1051545E-02  0.1287842E-02 -0.1176910E+00  0.2621621E+01  0.1574230E-01 -0.1268066E-01  0.1043867E+07  0.1531835E+07  0.4584290E-03 -0.2765154E-03 -0.2633339E+04  0.1024519E+06 -0.1169741E-05 -0.4525757E-03 -0.9675980E-01  0.2081934E+00  0.1319885E-02  0.1477051E-02 -0.6442666E+05  0.1174190E+07  0.1251698E-05 -0.9918213E-06
  0.1300000E+01  0.2218837E+06  0.2335953E+06  0.1294255E-02 -0.3633785E-02  0.1398163E+00  0.1818127E+01 -0.1872301E-02  0.8835888E-02  0.9976936E+06  0.1551183E+07  0.1414017E-03 -0.4368031E-03 -0.5488735E+04  0.1025191E+06 -0.5963445E-04 -0.1329137E-02  0.5908966E-02  0.1479549E-01 -0.9727478E-04 -0.1292095E-01 -0.1050748E+06  0.1199027E+07  0.5960464E-07  0.1162291E-05
  0.1320000E+01  0.2159271E+06  0.2388477E+06  0.4405975E-03 -0.2688904E-02  0.4389114E+00  0.9899194E+00  0.1270962E-01 -0.5073166E-02  0.9528493E+06  0.1567061E+07 -0.3166485E-03 -0.1714299E-03 -0.8202694E+04  0.1023999E+06 -0.2382919E-03 -0.1460364E-03  0.8113098E-01 -0.1621298E+00 -0.1007080E-02  0.5977020E-02 -0.1453512E+06  0.1218634E+07  0.1192093E-06  0.9441375E-06
  0.1340000E+01  0.2100458E+06  0.2436948E+06 -0.1029968E-03  0.1292620E-02  0.5010071E+00  0.8070956E+00  0.1341343E-02  0.5872059E-02  0.9094609E+06  0.1579604E+07  0.1367118E-03  0.1254209E-02 -0.1075631E+05  0.1021264E+06 -0.3007054E-04 -0.1562511E-02  0.8448410E-01 -0.2179447E+00  0.8563995E-03  0.7992133E-02 -0.1842402E+06  0.1235623E+07  0.2980232E-06 -0.4792213E-06
  0.1360000E+01  0.2042561E+06  0.2481402E+06 -0.6904602E-03 -0.3910446E-03  0.5944366E+00  0.9899927E+00 -0.7589340E-02  0.2487511E-01  0.8676316E+06  0.1588954E+07  0.2656264E-03  0.4880789E-03 -0.1315724E+05  0.1017148E+06  0.3832355E-03 -0.1751655E-03  0.1337090E+00 -0.2248656E+00 -0.4259109E-02  0.9658737E-02 -0.2215382E+06  0.1250098E+07  0.4172325E-06  0.1013279E-05
  0.1380000E+01  0.1985739E+06  0.2521887E+06 -0.1230240E-03  0.2448549E-02  0.4781036E+00  0.9665854E+00 -0.1283169E-02  0.1056805E-02  0.8274414E+06  0.1595262E+07  0.2223435E-03  0.9900038E-03 -0.1542849E+05  0.1011707E+06  0.1174510E-03 -0.1238402E-02  0.1319466E+00 -0.2978821E+00 -0.2038956E-02 -0.2396564E-02 -0.2572036E+06  0.1262386E+07  0.0000000E+00 -0.9047985E-06
  0.1400000E+01  0.1930148E+06  0.2558485E+06 -0.1482487E-02  0.4612922E-03  0.1967316E+00  0.1475537E+01 -0.1419783E-01  0.1129866E-01  0.7889520E+06  0.1598690E+07 -0.1609058E-03  0.5511232E-03 -0.1757012E+05  0.1005120E+06 -0.1691505E-03  0.4425846E-03  0.9300232E-01 -0.1953396E+00  0.1436234E-02 -0.9763908E-02 -0.2912118E+06  0.1272476E+07  0.1192093E-05  0.1251697E-06
  0.1420000E+01  0.1876013E+06  0.2591345E+06 -0.1821518E-03 -0.4345683E-02 -0.2375519E+01  0.3728735E+01 -0.3365993E-02  0.4783773E-02  0.7522436E+06  0.1599433E+07 -0.2984540E-04  0.1483510E-03 -0.1954700E+05  0.9978192E+05 -0.1511797E-03 -0.1256354E-03 -0.1699600E+00  0.2994662E+00 -0.8029938E-03 -0.1192118E-01 -0.3257089E+06  0.1282482E+07 -0.4768372E-06 -0.2115965E-06
  0.1440000E+01  0.1823390E+06  0.2620582E+06 -0.2453327E-03 -0.1464271E-02  0.8289658E+01 -0.1048847E+02 -0.3600121E-03  0.7978820E-03  0.7172387E+06  0.1597603E+07 -0.3081257E-03 -0.9852948E-03 -0.2139705E+05  0.9893809E+05  0.2129972E-03  0.1781475E-02 -0.1062565E+00  0.2330475E+00  0.1716614E-03 -0.2977295E-02 -0.3604123E+06  0.1290915E+07 -0.6556511E-06  0.5149841E-06
  0.1460000E+01  0.1772431E+06  0.2646267E+06 -0.1246691E-02  0.8538675E-03  0.1140162E+02 -0.1468093E+02  0.2435207E-02  0.1072329E-01  0.6839876E+06  0.1593397E+07 -0.3327269E-03 -0.1402955E-03 -0.2310782E+05  0.9806127E+05  0.7233769E-04  0.1353313E-02 -0.1542206E+00  0.3664634E+00 -0.1428604E-02  0.9852370E-02 -0.3930186E+06  0.1295926E+07  0.3576279E-06  0.0000000E+00
  0.1480000E+01  0.1723085E+06  0.2668446E+06  0.1582146E-02  0.1974602E-02  0.1285452E+02 -0.1521445E+02  0.4429817E-03  0.2731838E-02  0.6524889E+06  0.1586959E+07 -0.5073327E-03 -0.4183168E-03 -0.2471490E+05  0.9712662E+05  0.2022386E-03 -0.7160125E-03 -0.1612778E+00  0.3527056E+00  0.5622864E-02 -0.4378280E-02 -0.4235792E+06  0.1297693E+07  0.1132488E-05  0.0000000E+00
  0.1500000E+01  0.1675416E+06  0.2687262E+06 -0.8630753E-04 -0.9258985E-03  0.8688995E+01 -0.1227777E+02  0.5013943E-02 -0.2015662E-01  0.6227071E+06  0.1578473E+07  0.1476409E-04  0.9950823E-03 -0.2620845E+05  0.9616452E+05  0.1113638E-03  0.6337836E-04  0.6830215E-02  0.1113553E+00 -0.5302429E-03  0.1886129E-01 -0.4524207E+06  0.1298783E+07 -0.8940697E-07 -0.4470348E-07
  0.1520000E+01  0.1629442E+06  0.2702828E+06 -0.8258820E-03 -0.3986359E-03  0.6478340E+01 -0.9016592E+01  0.1024771E-01 -0.3441822E-01  0.5946438E+06  0.1568100E+07  0.5471693E-03  0.1552247E-03 -0.2759321E+05  0.9519602E+05 -0.1439340E-03  0.1999691E-03 -0.3718567E-01  0.6809136E-01  0.1022243E-01 -0.1728558E-01 -0.4793966E+06  0.1299649E+07 -0.2384186E-06  0.0000000E+00
  0.1540000E+01  0.1585196E+06  0.2715204E+06  0.1535416E-03  0.9630728E-03  0.3453674E+00 -0.1136948E+02 -0.6047726E-02  0.1207164E-01  0.5682382E+06  0.1555962E+07  0.6929644E-03  0.5671218E-03 -0.2890004E+05  0.9421056E+05  0.1391992E-03  0.4134159E-03 -0.5949211E-01  0.3013981E-01  0.4348755E-03 -0.9124774E-02 -0.5048508E+06  0.1300796E+07  0.0000000E+00  0.6884336E-07
  0.1560000E+01  0.1542660E+06  0.2724477E+06  0.5993843E-03 -0.9428501E-03 -0.2475182E+01 -0.7314344E+01  0.1776218E-02  0.1519941E-01  0.5434526E+06  0.1542225E+07  0.7086809E-04 -0.5523157E-03 -0.3013638E+05  0.9322259E+05 -0.7806793E-03 -0.2335681E-03 -0.3099251E-01 -0.9435195E-02  0.1131630E-01 -0.1765938E-02 -0.5287836E+06  0.1302834E+07  0.2980232E-07  0.1394749E-06