VARIABLES="w (rad/s)"
"abs(F   1   1)" "angle(F   1   1)"
"abs(F   1   2)" "angle(F   1   2)"
"abs(F   1   3)" "angle(F   1   3)"
"abs(F   1   4)" "angle(F   1   4)"
"abs(F   1   5)" "angle(F   1   5)"
"abs(F   1   6)" "angle(F   1   6)"
Zone t="Diffraction force - beta =   0.000 deg",I=   800,F=POINT
  0.1000000E+00  0.1321100E+01 -0.1570792E+01  0.1768939E-07  0.3874486E+00  0.1656376E+00 -0.3133416E+01  0.5558271E-08 -0.1665811E+01  0.7292425E-01 -0.1570790E+01  0.9623213E-07  0.1570630E+01
  0.2000000E+00  0.1639860E+01 -0.1570768E+01  0.2662478E-06  0.1464764E+01  0.6224317E+00 -0.3132960E+01  0.3195275E-08 -0.2660887E+01  0.1352772E-01 -0.1570542E+01  0.8376532E-07  0.1571517E+01
  0.3000000E+00  0.4108192E+01 -0.1570754E+01  0.2716481E-06 -0.1667667E+01  0.1443753E+01 -0.3133199E+01  0.9711739E-08  0.9574957E-02  0.2257072E+00 -0.1570736E+01  0.6545631E-06  0.1570640E+01
  0.4000000E+00  0.5512923E+01 -0.1570721E+01  0.3957513E-06 -0.1499125E+01  0.2562073E+01 -0.3133236E+01  0.8298485E-07  0.1616334E+01  0.3005558E+00 -0.1570688E+01  0.4948599E-06  0.1572454E+01
  0.5000000E+00  0.6916981E+01 -0.1570677E+01  0.3265810E-06  0.2463177E+01  0.3996049E+01 -0.3133288E+01  0.6917347E-08 -0.1975768E+01  0.3729592E+00 -0.1570622E+01  0.1107295E-05  0.1568602E+01
  0.6000000E+00  0.8341404E+01 -0.1570621E+01  0.4028136E-06  0.1416433E+01  0.5753099E+01 -0.3133358E+01  0.5869186E-07  0.2978403E+01  0.4427215E+00 -0.1570539E+01  0.7063355E-06 -0.1562587E+01
  0.7000000E+00  0.9770647E+01 -0.1570552E+01  0.2988799E-05  0.1537371E+01  0.7807928E+01 -0.3133454E+01  0.3083596E-07 -0.5376037E+00  0.5106863E+00 -0.1570434E+01  0.4024347E-06 -0.1562890E+01
  0.8000000E+00  0.1122868E+02 -0.1570468E+01  0.2648386E-05  0.1564445E+01  0.1018888E+02 -0.3133546E+01  0.1086339E-06  0.3036280E+01  0.5728623E+00 -0.1570304E+01  0.1665684E-05 -0.1573979E+01
  0.9000000E+00  0.1271089E+02 -0.1570369E+01  0.5498337E-06  0.1104829E+01  0.1286275E+02 -0.3133688E+01  0.7784511E-07 -0.3087494E+00  0.6313888E+00 -0.1570142E+01  0.1523471E-05 -0.1568462E+01
  0.1000000E+01  0.1421330E+02 -0.1570250E+01  0.2230707E-06 -0.1027244E+01  0.1587110E+02 -0.3133769E+01  0.9537253E-07  0.1662425E+00  0.6867133E+00 -0.1569940E+01  0.1471935E-05  0.1588295E+01
  0.1100000E+01  0.1573368E+02 -0.1570109E+01  0.1155224E-05 -0.1388293E+01  0.1914747E+02 -0.3133988E+01  0.1650555E-06 -0.3211466E-01  0.7343394E+00 -0.1569698E+01  0.1455386E-05 -0.1635334E+01
  0.1200000E+01  0.1730327E+02 -0.1569943E+01  0.1745545E-05 -0.1457510E+01  0.2273622E+02 -0.3134213E+01  0.2230015E-07 -0.7965840E-01  0.7753804E+00 -0.1569392E+01  0.1736729E-05 -0.1583517E+01
  0.1300000E+01  0.1892432E+02 -0.1569748E+01  0.4511339E-05 -0.1573170E+01  0.2666045E+02 -0.3134248E+01  0.6093973E-06  0.2827369E+01  0.8111207E+00 -0.1569013E+01  0.3364495E-05 -0.1577646E+01
  0.1400000E+01  0.2056218E+02 -0.1569518E+01  0.1006004E-04  0.1538134E+01  0.3081738E+02 -0.3134625E+01  0.2722594E-06 -0.1856865E+00  0.8369579E+00 -0.1568545E+01  0.6856875E-08  0.2607178E+01
  0.1500000E+01  0.2226585E+02 -0.1569248E+01  0.2071840E-05  0.2773681E+01  0.3527531E+02 -0.3134951E+01  0.1399243E-06 -0.1816224E+01  0.8596481E+00 -0.1567969E+01  0.7798558E-06  0.1569644E+01
  0.1600000E+01  0.2399088E+02 -0.1568924E+01  0.5905161E-05  0.1439597E+01  0.4002686E+02 -0.3135344E+01  0.1886800E-06 -0.2207303E+01  0.8678101E+00 -0.1567196E+01  0.3415930E-06 -0.1182239E+01
  0.1700000E+01  0.2578869E+02 -0.1568545E+01  0.3667443E-05  0.1838858E+01  0.4513169E+02 -0.3135139E+01  0.7286256E-07 -0.2922181E+01  0.8645779E+00 -0.1566232E+01  0.2840608E-05 -0.1572920E+01
  0.1800000E+01  0.2767751E+02 -0.1568103E+01  0.6078391E-05 -0.1593091E+01  0.5034833E+02 -0.3135910E+01  0.1715933E-06  0.1322696E+01  0.8537440E+00 -0.1564974E+01  0.3343696E-05  0.1487681E+01
  0.1900000E+01  0.2964378E+02 -0.1567577E+01  0.1210651E-04 -0.1633765E+01  0.5588857E+02 -0.3136410E+01  0.8489574E-06  0.3075189E+01  0.8309907E+00 -0.1563325E+01  0.8539441E-06 -0.1400339E+01
  0.2000000E+01  0.3165490E+02 -0.1566941E+01  0.1668979E-05  0.2828621E+01  0.6169500E+02 -0.3137066E+01  0.3470519E-06  0.7611431E+00  0.7910115E+00 -0.1560983E+01  0.1173406E-05  0.1361926E+01
  0.2100000E+01  0.3375962E+02 -0.1566189E+01  0.6951949E-05 -0.1303998E+01  0.6790349E+02 -0.3136153E+01  0.1369899E-06 -0.1214666E+01  0.7399999E+00 -0.1557814E+01  0.5214247E-05 -0.1606924E+01
  0.2200000E+01  0.3593711E+02 -0.1565311E+01  0.9275273E-05 -0.1570495E+01  0.7403676E+02 -0.3137720E+01  0.4762618E-06 -0.2574652E+01  0.6744007E+00 -0.1553202E+01  0.1286150E-05 -0.1654002E+01
  0.2300000E+01  0.3820850E+02 -0.1564267E+01  0.7622942E-05  0.1377414E+01  0.8048850E+02 -0.3138409E+01  0.2126409E-06  0.7900442E+00  0.5872970E+00 -0.1546019E+01  0.6035359E-05 -0.1540202E+01
  0.2400000E+01  0.4058647E+02 -0.1563013E+01  0.7845187E-05 -0.1919477E+00  0.8717860E+02 -0.3139125E+01  0.2730241E-05 -0.3010978E+01  0.4776805E+00 -0.1533492E+01  0.1469429E-05 -0.7928840E+00
  0.2500000E+01  0.4313876E+02 -0.1561527E+01  0.1069465E-04  0.4811019E-01  0.9410921E+02 -0.3139239E+01  0.1008700E-05  0.3420084E-01  0.3555316E+00 -0.1509452E+01  0.7662165E-06 -0.1352881E+01
  0.2600000E+01  0.4579974E+02 -0.1559785E+01  0.2282481E-04  0.2534455E+01  0.1011898E+03 -0.3139683E+01  0.1612897E-06 -0.2509717E+01  0.2104603E+00 -0.1445058E+01  0.4106661E-05  0.1525981E+01
  0.2700000E+01  0.4854919E+02 -0.1557758E+01  0.1429845E-04  0.3753448E+00  0.1082900E+03 -0.3140685E+01  0.3980719E-07 -0.1253617E+00  0.4920502E-01 -0.8694756E+00  0.6881452E-05 -0.1717981E+01
  0.2800000E+01  0.5140067E+02 -0.1555365E+01  0.2970179E-04 -0.3116482E+01  0.1156255E+03 -0.3141421E+01  0.1210330E-05 -0.2706079E-01  0.1633506E+00  0.1336196E+01  0.7074791E-05  0.1240872E+01
  0.2900000E+01  0.5440075E+02 -0.1552552E+01  0.3862701E-04  0.3535613E+00  0.1231281E+03  0.3140961E+01  0.1345695E-05 -0.2431715E+01  0.3746862E+00  0.1449273E+01  0.5196529E-05  0.1295360E+01
  0.3000000E+01  0.5744793E+02 -0.1549250E+01  0.1560240E-04  0.5470582E+00  0.1308158E+03 -0.3140262E+01  0.9490962E-06 -0.1400840E+00  0.6298982E+00  0.1485755E+01  0.4678648E-05  0.1434759E+01
  0.3100000E+01  0.6062526E+02 -0.1545538E+01  0.2575508E-04  0.4599766E+00  0.1383714E+03  0.3140970E+01  0.1364665E-05  0.3952568E+00  0.9166663E+00  0.1502121E+01  0.1182434E-05 -0.2016787E+01
  0.3200000E+01  0.6394442E+02 -0.1541370E+01  0.5819054E-05  0.6610432E+00  0.1459622E+03  0.3140690E+01  0.4483489E-05  0.3104421E+01  0.1233792E+01  0.1511926E+01  0.3662008E-05 -0.2931751E+01
  0.3300000E+01  0.6742218E+02 -0.1536652E+01  0.1995181E-04 -0.2759225E+01  0.1537330E+03  0.3140652E+01  0.2392645E-06 -0.2542749E+01  0.1577202E+01  0.1518254E+01  0.7029661E-05 -0.2400484E+01
  0.3400000E+01  0.7094548E+02 -0.1531259E+01  0.5909388E-05 -0.1310669E+01  0.1615953E+03  0.3140906E+01  0.9216126E-06 -0.5804502E-01  0.1961056E+01  0.1522995E+01  0.7131488E-05 -0.1688356E+01
  0.3500000E+01  0.7450146E+02 -0.1525110E+01  0.4661991E-05 -0.1016210E+01  0.1694279E+03 -0.3139547E+01  0.6494137E-06  0.1612621E+00  0.2383441E+01  0.1527208E+01  0.3561053E-05  0.1354278E+01
  0.3600000E+01  0.7806190E+02 -0.1518356E+01  0.4668934E-04 -0.6326491E-01  0.1772797E+03 -0.3139810E+01  0.1599120E-05  0.8736106E-01  0.2836935E+01  0.1530422E+01  0.1307294E-04  0.1870112E+01
  0.3700000E+01  0.8173044E+02 -0.1511090E+01  0.4114411E-04 -0.3044014E+01  0.1849361E+03 -0.3138613E+01  0.4232663E-05 -0.3069022E+01  0.3300692E+01  0.1533425E+01  0.1129876E-04  0.1675588E+01
  0.3800000E+01  0.8521889E+02 -0.1503033E+01  0.6373140E-04  0.2539149E+01  0.1927004E+03 -0.3136797E+01  0.3980230E-06 -0.1639718E+01  0.3828777E+01  0.1536835E+01  0.9074550E-05 -0.1993551E+01
  0.3900000E+01  0.8870076E+02 -0.1494295E+01  0.3683918E-04 -0.9974766E+00  0.2004878E+03 -0.3134369E+01  0.1343172E-05 -0.3031449E+01  0.4396521E+01  0.1540334E+01  0.1161005E-04  0.1883652E+01
  0.4000000E+01  0.9213161E+02 -0.1484766E+01  0.5862342E-04  0.3782879E+00  0.2081940E+03 -0.3131214E+01  0.3136014E-05 -0.2208620E+00  0.5004488E+01  0.1543979E+01  0.1318304E-04 -0.1482075E+01
  0.4100000E+01  0.9557041E+02 -0.1474537E+01  0.5425675E-04  0.2455619E+01  0.2156196E+03 -0.3125485E+01  0.2470350E-05  0.6347724E+00  0.5637620E+01  0.1548361E+01  0.1924852E-04  0.1793854E+01
  0.4200000E+01  0.9892519E+02 -0.1463788E+01  0.1850566E-04 -0.1763632E+01  0.2233189E+03 -0.3122972E+01  0.3851066E-05  0.2829320E+01  0.6293310E+01  0.1552281E+01  0.5696810E-05 -0.3107927E+01
  0.4300000E+01  0.1021281E+03 -0.1452336E+01  0.6375131E-04 -0.5817548E+00  0.2306261E+03 -0.3118077E+01  0.2572684E-05 -0.3048451E+01  0.6982879E+01  0.1556991E+01  0.2921561E-05  0.1885517E+01
  0.4400000E+01  0.1051220E+03 -0.1440141E+01  0.3996752E-04  0.3040570E+01  0.2379042E+03 -0.3112294E+01  0.5279565E-05  0.3062657E+01  0.7712620E+01  0.1562083E+01  0.8350229E-05  0.2092208E+01
  0.4500000E+01  0.1078837E+03 -0.1427242E+01  0.7647512E-04 -0.2424587E+01  0.2451354E+03 -0.3105611E+01  0.1618825E-05 -0.2223309E+01  0.8474850E+01  0.1567560E+01  0.2154147E-04 -0.1507755E+01
  0.4600000E+01  0.1105207E+03 -0.1413753E+01  0.6288868E-04  0.3128027E+01  0.2521574E+03 -0.3097918E+01  0.3936987E-05 -0.1092234E+01  0.9242801E+01  0.1573368E+01  0.1543764E-04  0.1117419E+01
  0.4700000E+01  0.1128802E+03 -0.1399572E+01  0.5373093E-04 -0.2955401E+01  0.2587593E+03 -0.3088455E+01  0.3450780E-05 -0.8416462E+00  0.1003229E+02  0.1579830E+01  0.9879679E-05  0.2773775E+01
  0.4800000E+01  0.1148429E+03 -0.1384714E+01  0.1259562E-03 -0.2821151E+01  0.2654987E+03 -0.3079257E+01  0.5048508E-05 -0.2567444E+01  0.1085120E+02  0.1586335E+01  0.1732002E-04  0.1225301E+01
  0.4900000E+01  0.1165115E+03 -0.1369434E+01  0.4476874E-04  0.2607852E+01  0.2716500E+03 -0.3068819E+01  0.6348687E-05 -0.3115726E+01  0.1167321E+02  0.1593248E+01  0.6717423E-05  0.8612707E+00
  0.5000000E+01  0.1178450E+03 -0.1353687E+01  0.1340787E-03  0.6266962E+00  0.2775736E+03 -0.3057070E+01  0.9623229E-05  0.2907218E+01  0.1250449E+02  0.1600482E+01  0.2134923E-04 -0.1013336E+01
  0.5100000E+01  0.1188001E+03 -0.1337439E+01  0.4120422E-04 -0.3017776E+01  0.2834084E+03 -0.3043906E+01  0.5027409E-05  0.8610888E+00  0.1334045E+02  0.1607944E+01  0.8924893E-05 -0.2083590E+01
  0.5200000E+01  0.1193633E+03 -0.1320761E+01  0.6852019E-04  0.1341467E+00  0.2889585E+03 -0.3029332E+01  0.9338039E-05 -0.2717497E+00  0.1416687E+02  0.1615582E+01  0.3562966E-05 -0.4280742E+00
  0.5300000E+01  0.1195203E+03 -0.1303923E+01  0.7949633E-04 -0.1413444E+01  0.2941031E+03 -0.3013255E+01  0.1892517E-05  0.8342784E+00  0.1497692E+02  0.1623587E+01  0.2177103E-04 -0.1020443E+01
  0.5400000E+01  0.1192044E+03 -0.1286892E+01  0.3707753E-04 -0.6385177E+00  0.2987453E+03 -0.2995365E+01  0.6252261E-06  0.2793206E+01  0.1577093E+02  0.1631830E+01  0.5111704E-05  0.2470183E+01
  0.5500000E+01  0.1183011E+03 -0.1269367E+01  0.1407649E-03  0.1634354E+01  0.3029649E+03 -0.2975969E+01  0.2837947E-05 -0.1797638E+01  0.1655801E+02  0.1639824E+01  0.4224678E-05  0.3019825E+01
  0.5600000E+01  0.1169050E+03 -0.1251685E+01  0.1006607E-03 -0.1951330E+01  0.3067538E+03 -0.2955374E+01  0.8074252E-05  0.3078553E+01  0.1731071E+02  0.1647500E+01  0.4270269E-05 -0.1921030E+01
  0.5700000E+01  0.1150129E+03 -0.1233892E+01  0.6421605E-04  0.1238699E+01  0.3098201E+03 -0.2933009E+01  0.5667654E-05 -0.3782423E+00  0.1802732E+02  0.1654948E+01  0.1443995E-04 -0.2791472E+01
  0.5800000E+01  0.1126991E+03 -0.1216585E+01  0.1711998E-03  0.2062669E+01  0.3126215E+03 -0.2908433E+01  0.3377771E-05  0.1306742E+01  0.1870165E+02  0.1662364E+01  0.5687189E-05  0.2568073E+01
  0.5900000E+01  0.1098926E+03 -0.1199626E+01  0.1229108E-03 -0.1926176E+01  0.3147976E+03 -0.2881412E+01  0.7581775E-05  0.2266386E+01  0.1933352E+02  0.1669455E+01  0.4025329E-05 -0.3001798E+01
  0.6000000E+01  0.1065822E+03 -0.1183083E+01  0.3428031E-04 -0.2847888E+01  0.3171484E+03 -0.2852269E+01  0.4708592E-05 -0.9069321E+00  0.1991908E+02  0.1676047E+01  0.5615196E-05  0.2172680E+01
  0.6100000E+01  0.1027885E+03 -0.1166597E+01  0.4272740E-03  0.1495675E+01  0.3179851E+03 -0.2820737E+01  0.5496097E-05 -0.3000139E+00  0.2044594E+02  0.1681685E+01  0.2006495E-04 -0.1437644E+01
  0.6200000E+01  0.9854811E+02 -0.1150666E+01  0.4875883E-04 -0.1085279E+01  0.3182754E+03 -0.2786671E+01  0.3396058E-05 -0.2178863E+01  0.2091609E+02  0.1686544E+01  0.1156680E-04  0.2209897E+01
  0.6300000E+01  0.9385711E+02 -0.1135509E+01  0.9041980E-04  0.1366678E+01  0.3178667E+03 -0.2750025E+01  0.5038622E-05  0.1404834E+01  0.2132617E+02  0.1690689E+01  0.1980337E-04 -0.5259433E+00
  0.6400000E+01  0.8876904E+02 -0.1121310E+01  0.3094949E-04 -0.1130621E+01  0.3165981E+03 -0.2711016E+01  0.8368143E-05 -0.1640040E+01  0.2166043E+02  0.1693662E+01  0.7640570E-05 -0.1143059E+01
  0.6500000E+01  0.8334721E+02 -0.1108331E+01  0.5692167E-04  0.1538853E+01  0.3144915E+03 -0.2669413E+01  0.1236106E-04  0.1554955E+01  0.2192108E+02  0.1695405E+01  0.2196800E-04 -0.1652834E+01
  0.6600000E+01  0.7760410E+02 -0.1096577E+01  0.1019960E-03  0.1740941E+01  0.3115900E+03 -0.2625001E+01  0.1138790E-05 -0.1684978E+01  0.2212277E+02  0.1695884E+01  0.9446610E-05  0.1635682E+01
  0.6700000E+01  0.7155707E+02 -0.1085765E+01  0.1571963E-03  0.1117959E+01  0.3081015E+03 -0.2577267E+01  0.2382596E-05 -0.1705505E+01  0.2227841E+02  0.1694883E+01  0.1153243E-04  0.1651545E+01
  0.6800000E+01  0.6523808E+02 -0.1076233E+01  0.1546719E-03 -0.1211214E+01  0.3038837E+03 -0.2526376E+01  0.7166328E-05  0.1431183E+01  0.2238378E+02  0.1692274E+01  0.6570283E-05 -0.1021473E+01
  0.6900000E+01  0.5867205E+02 -0.1068147E+01  0.2590130E-03 -0.1039276E+01  0.2988001E+03 -0.2472472E+01  0.1534516E-04 -0.2084449E+01  0.2244098E+02  0.1687887E+01  0.1833845E-04 -0.2760825E+01
  0.7000000E+01  0.5192791E+02 -0.1061816E+01  0.1736218E-03 -0.1235312E+01  0.2928026E+03 -0.2415745E+01  0.6499873E-05  0.1713012E+01  0.2244773E+02  0.1681662E+01  0.6470952E-05 -0.3052530E+01
  0.7100000E+01  0.4504847E+02 -0.1057502E+01  0.6572131E-04 -0.2659718E+01  0.2859141E+03 -0.2356224E+01  0.6742692E-05 -0.2118626E+01  0.2240813E+02  0.1673634E+01  0.9530456E-05 -0.2862179E+01
  0.7200000E+01  0.3803888E+02 -0.1054338E+01  0.8635658E-04 -0.3796194E-02  0.2782583E+03 -0.2294205E+01  0.6363925E-05  0.2107021E+01  0.2233570E+02  0.1663385E+01  0.1261653E-04 -0.2721301E+01
  0.7300000E+01  0.3092149E+02 -0.1052810E+01  0.1145762E-03  0.6283947E+00  0.2698981E+03 -0.2229949E+01  0.3307039E-05  0.1591268E+01  0.2223599E+02  0.1650891E+01  0.1332398E-04  0.1576258E+00
  0.7400000E+01  0.2375192E+02 -0.1053897E+01  0.2399647E-03 -0.1722832E+01  0.2609535E+03 -0.2163764E+01  0.1210183E-04  0.5114033E+00  0.2210700E+02  0.1636126E+01  0.8779612E-05  0.3054579E+01
  0.7500000E+01  0.1654442E+02 -0.1058395E+01  0.2420273E-03 -0.3009825E+01  0.2515706E+03 -0.2095626E+01  0.5744634E-05 -0.2412640E+01  0.2196769E+02  0.1619404E+01  0.1463952E-05 -0.3092747E+01
  0.7600000E+01  0.9319912E+01 -0.1068107E+01  0.8735107E-04 -0.2147479E+01  0.2418940E+03 -0.2025850E+01  0.7129692E-05  0.1681138E+01  0.2183326E+02  0.1601015E+01  0.1145415E-04  0.3019837E+01
  0.7700000E+01  0.2062612E+01 -0.1105376E+01  0.1516161E-03 -0.1308921E+00  0.2321617E+03 -0.1954746E+01  0.5848941E-05 -0.2596344E+01  0.2172114E+02  0.1581010E+01  0.1740644E-05 -0.2368479E+01
  0.7800000E+01  0.5235325E+01  0.2080730E+01  0.2377015E-03  0.1783019E+01  0.2224720E+03 -0.1882651E+01  0.1210125E-04  0.5329882E-01  0.2163831E+02  0.1559806E+01  0.6478586E-05  0.6794006E-01
  0.7900000E+01  0.1257611E+02  0.2061335E+01  0.9908871E-04  0.2330352E+01  0.2128367E+03 -0.1810181E+01  0.1077629E-04 -0.2409040E+01  0.2158708E+02  0.1537579E+01  0.1405429E-04  0.3086083E+01
  0.8000000E+01  0.1996778E+02  0.2046821E+01  0.1363979E-03 -0.2506274E+01  0.2033551E+03 -0.1737744E+01  0.1187664E-05  0.1921412E+01  0.2156904E+02  0.1514597E+01  0.1053137E-04 -0.2094342E+00
  0.8100000E+01  0.2743980E+02  0.2032166E+01  0.8812789E-04  0.8741096E+00  0.1940790E+03 -0.1665933E+01  0.2225407E-05  0.1874705E+00  0.2159167E+02  0.1491453E+01  0.7039132E-05  0.3035233E+01
  0.8200000E+01  0.3510462E+02  0.2017544E+01  0.9708251E-04 -0.2700348E+00  0.1851697E+03 -0.1595104E+01  0.1055597E-04 -0.3952997E-02  0.2167418E+02  0.1469112E+01  0.1195313E-04 -0.2520416E+01
  0.8300001E+01  0.4296364E+02  0.2001977E+01  0.2450224E-04  0.2410405E+01  0.1767003E+03 -0.1525933E+01  0.4586092E-05  0.3225459E+00  0.2181021E+02  0.1447722E+01  0.1270223E-04  0.2753538E+00
  0.8400001E+01  0.5104979E+02  0.1985693E+01  0.4451103E-04 -0.2480080E+01  0.1686893E+03 -0.1458985E+01  0.4680290E-05  0.1788618E-01  0.2200045E+02  0.1427666E+01  0.2886295E-04 -0.8215965E-01
  0.8500001E+01  0.5948196E+02  0.1969893E+01  0.9107318E-04  0.3534873E-01  0.1611904E+03 -0.1394792E+01  0.1113068E-04 -0.9183016E-01  0.2225472E+02  0.1409877E+01  0.1182105E-04 -0.2416857E+01
  0.8600000E+01  0.6831129E+02  0.1955202E+01  0.1775110E-03  0.3018893E+01  0.1541882E+03 -0.1334139E+01  0.6788425E-05 -0.2940499E+01  0.2257073E+02  0.1395233E+01  0.2570401E-04 -0.7411663E+00
  0.8700000E+01  0.7758961E+02  0.1941438E+01  0.2484898E-04  0.2010413E+00  0.1476729E+03 -0.1277488E+01  0.3787145E-05  0.4807878E+00  0.2294668E+02  0.1384091E+01  0.3323406E-04 -0.6190450E+00
  0.8800001E+01  0.8744260E+02  0.1929920E+01  0.1438835E-03 -0.6082961E-01  0.1416648E+03 -0.1224756E+01  0.3545395E-05  0.2472591E+01  0.2338917E+02  0.1377993E+01  0.3614064E-04 -0.3046900E+01
  0.8900001E+01  0.9791626E+02  0.1920449E+01  0.1168843E-03 -0.1885197E+00  0.1361484E+03 -0.1176288E+01  0.4061572E-05 -0.9300541E+00  0.2389631E+02  0.1376961E+01  0.1532341E-04  0.1922142E+01
  0.9000001E+01  0.1090119E+03  0.1914155E+01  0.1146993E-03 -0.1024221E+00  0.1310366E+03 -0.1133000E+01  0.3796617E-05 -0.3104232E+01  0.2444949E+02  0.1381203E+01  0.3766400E-04 -0.2519881E+01
  0.9100000E+01  0.1207849E+03  0.1911747E+01  0.1790133E-04  0.3056585E+01  0.1262587E+03 -0.1094922E+01  0.8839238E-05 -0.2848358E+01  0.2504771E+02  0.1391506E+01  0.1620322E-04 -0.2403241E+01
  0.9200000E+01  0.1332514E+03  0.1913048E+01  0.4192776E-04 -0.3106579E+01  0.1217849E+03 -0.1061973E+01  0.4508601E-05 -0.5216857E+00  0.2569073E+02  0.1407620E+01  0.2571176E-04  0.3072020E+01
  0.9300001E+01  0.1464556E+03  0.1918047E+01  0.6709802E-04  0.5579401E+00  0.1175548E+03 -0.1034530E+01  0.9858479E-05  0.4436527E+00  0.2638283E+02  0.1429416E+01  0.2733976E-04  0.2381807E+01
  0.9400001E+01  0.1602330E+03  0.1928320E+01  0.1092361E-03  0.2044717E+00  0.1135563E+03 -0.1012096E+01  0.1120766E-04  0.1481743E+01  0.2708422E+02  0.1457873E+01  0.1215102E-04 -0.2601991E+01
  0.9500001E+01  0.1745110E+03  0.1943545E+01  0.7892344E-04  0.3128376E+01  0.1097832E+03 -0.9952332E+00  0.4471618E-05  0.2064416E+01  0.2779510E+02  0.1492782E+01  0.1854366E-04  0.1829416E+01
  0.9600000E+01  0.1893610E+03  0.1963207E+01  0.7516380E-04 -0.4599239E+00  0.1062824E+03 -0.9838015E+00  0.7645817E-05  0.5883179E+00  0.2855324E+02  0.1533728E+01  0.1176308E-04 -0.1659284E+01
  0.9700001E+01  0.2043978E+03  0.1988160E+01  0.8804445E-04 -0.1397010E+00  0.1030048E+03 -0.9776349E+00  0.8856392E-05  0.7252029E+00  0.2930050E+02  0.1581266E+01  0.1134086E-04  0.1442355E+01
  0.9800001E+01  0.2192899E+03  0.2018371E+01  0.4730029E-04  0.2088536E+01  0.9995461E+02 -0.9770199E+00  0.3794788E-05  0.2231887E+01  0.3001246E+02  0.1634593E+01  0.2411514E-05 -0.1046884E+01
  0.9900001E+01  0.2340327E+03  0.2053333E+01  0.8406008E-04  0.2671008E+01  0.9712807E+02 -0.9814562E+00  0.6017357E-05  0.2060308E+01  0.3072283E+02  0.1693629E+01  0.1018126E-04 -0.2078228E+01
  0.1000000E+02  0.2481537E+03  0.2092919E+01  0.1186512E-03 -0.2020937E+00  0.9452439E+02 -0.9902226E+00  0.6020779E-05 -0.2619665E+01  0.3138791E+02  0.1758493E+01  0.5978435E-05  0.2741909E+00
  0.1010000E+02  0.2613778E+03  0.2136670E+01  0.2660656E-04 -0.9027902E+00  0.9213947E+02 -0.1003359E+01  0.8917792E-05  0.2865216E+01  0.3201307E+02  0.1828076E+01  0.7919991E-05 -0.2793071E+01
  0.1020000E+02  0.2731533E+03  0.2184051E+01  0.3499244E-04  0.5696360E+00  0.8995885E+02 -0.1020776E+01  0.8295876E-05  0.2690799E+01  0.3255042E+02  0.1901174E+01  0.9349445E-05 -0.1467163E+01
  0.1030000E+02  0.2832792E+03  0.2234632E+01  0.8029083E-04  0.2863693E+01  0.8798380E+02 -0.1041922E+01  0.8533846E-05  0.3093160E+01  0.3300164E+02  0.1977951E+01  0.2857052E-05  0.2100643E+01
  0.1040000E+02  0.2916474E+03  0.2287913E+01  0.1097722E-03 -0.8021867E-01  0.8617929E+02 -0.1066148E+01  0.3017791E-05  0.1272233E+00  0.3339977E+02  0.2057537E+01  0.1030102E-04  0.1234123E+01
  0.1050000E+02  0.2976359E+03  0.2342170E+01  0.7789767E-04 -0.3116665E+01  0.8453738E+02 -0.1092982E+01  0.3663617E-05 -0.2776290E+01  0.3367222E+02  0.2137218E+01  0.1129896E-04  0.1768412E+01
  0.1060000E+02  0.3012773E+03  0.2397299E+01  0.3398183E-04 -0.2934971E-01  0.8304531E+02 -0.1122037E+01  0.7121439E-05 -0.2039159E-01  0.3383986E+02  0.2216900E+01  0.7629554E-05  0.2366085E+01
  0.1070000E+02  0.3026731E+03  0.2453053E+01  0.1027488E-03 -0.7686192E-01  0.8169749E+02 -0.1152978E+01  0.1867799E-05 -0.3119456E+01  0.3393106E+02  0.2296498E+01  0.1386209E-05  0.1604484E+00
  0.1080000E+02  0.3017120E+03  0.2507981E+01  0.1045219E-03  0.3057398E+01  0.8047789E+02 -0.1185326E+01  0.4363146E-05  0.3127877E+01  0.3390758E+02  0.2373891E+01  0.8859086E-05  0.3065714E+01
  0.1090000E+02  0.2984774E+03  0.2561771E+01  0.2627150E-04 -0.2213354E+01  0.7939130E+02 -0.1218792E+01  0.7412146E-05  0.2800403E+01  0.3378729E+02  0.2448444E+01  0.1251360E-04 -0.2902990E+01
  0.1100000E+02  0.2934124E+03  0.2614227E+01  0.2001485E-03  0.4523481E-01  0.7841769E+02 -0.1252227E+01  0.2541226E-05 -0.2723847E+01  0.3360896E+02  0.2520204E+01  0.3438758E-05 -0.2502181E+01
  0.1110000E+02  0.2866465E+03  0.2665155E+01  0.1374282E-03  0.3107377E+01  0.7755984E+02 -0.1285535E+01  0.6913723E-05  0.5521172E+00  0.3337158E+02  0.2589022E+01  0.8618303E-05  0.1652160E+01
  0.1120000E+02  0.2783027E+03  0.2713784E+01  0.4880714E-04  0.9599078E+00  0.7680180E+02 -0.1318648E+01  0.3308932E-05 -0.1996346E+01  0.3307077E+02  0.2653288E+01  0.6678901E-05 -0.3031382E+01
  0.1130000E+02  0.2687948E+03  0.2760906E+01  0.1432088E-03  0.5461542E-01  0.7612646E+02 -0.1350654E+01  0.1138345E-04 -0.1176999E+00  0.3272491E+02  0.2714233E+01  0.1985782E-04 -0.2032567E+01
  0.1140000E+02  0.2583566E+03  0.2806727E+01  0.1388310E-03  0.2983939E+01  0.7547786E+02 -0.1381571E+01  0.1023030E-04 -0.2605338E+01  0.3235556E+02  0.2772403E+01  0.4046437E-05  0.2455593E+01
  0.1150000E+02  0.2473919E+03  0.2850331E+01  0.2592564E-04  0.6550254E+00  0.7480692E+02 -0.1410440E+01  0.6675615E-05 -0.1684011E+01  0.3199252E+02  0.2825768E+01  0.8601585E-05 -0.1522809E+01
  0.1160000E+02  0.2359481E+03  0.2892729E+01  0.8222291E-04  0.2208706E+01  0.7411889E+02 -0.1437365E+01  0.4837341E-05  0.6781219E+00  0.3161848E+02  0.2875807E+01  0.4427576E-05 -0.1088235E+01
  0.1170000E+02  0.2241757E+03  0.2934469E+01  0.7538685E-04  0.1187555E+01  0.7336067E+02 -0.1462290E+01  0.8265239E-05  0.5208746E+00  0.3123261E+02  0.2923321E+01  0.1823863E-04  0.1689878E+01
  0.1180000E+02  0.2122800E+03  0.2975885E+01  0.7386713E-04  0.2678035E+01  0.7250237E+02 -0.1484810E+01  0.1083422E-04  0.1764476E+00  0.3084790E+02  0.2968022E+01  0.9847137E-05  0.9475291E+00
  0.1190000E+02  0.2003927E+03  0.3017568E+01  0.4584256E-04  0.2309650E+00  0.7153357E+02 -0.1505154E+01  0.1258544E-04 -0.1518571E+01  0.3046821E+02  0.3010496E+01  0.3801731E-05 -0.2479088E+01
  0.1200000E+02  0.1887437E+03  0.3059802E+01  0.1281578E-03 -0.2624361E+01  0.7030099E+02 -0.1523133E+01  0.5192197E-05 -0.2226980E+01  0.3011195E+02  0.3051026E+01  0.1831584E-04 -0.1565951E+01
  0.1210000E+02  0.1772988E+03  0.3103589E+01  0.5476678E-04 -0.1171962E+00  0.6890164E+02 -0.1538771E+01  0.3005714E-05  0.1879795E+01  0.2975811E+02  0.3090229E+01  0.2659228E-04 -0.1577213E+01
  0.1220000E+02  0.1660812E+03 -0.3133111E+01  0.2362690E-04  0.3106977E+01  0.6723775E+02 -0.1552481E+01  0.7697598E-05  0.3935524E+00  0.2940157E+02  0.3128898E+01  0.3138386E-05  0.1591508E+01
  0.1230000E+02  0.1551715E+03 -0.3083244E+01  0.7011909E-04 -0.5305927E+00  0.6530455E+02 -0.1564385E+01  0.9400789E-06 -0.7875305E+00  0.2903165E+02 -0.3115587E+01  0.1079760E-04 -0.1641878E+01
  0.1240000E+02  0.1448194E+03 -0.3028777E+01  0.3504782E-04 -0.1718601E+01  0.6309629E+02 -0.1575302E+01  0.3701952E-05 -0.4697841E+00  0.2868686E+02 -0.3076516E+01  0.1047337E-04  0.1851586E+01
  0.1250000E+02  0.1349934E+03 -0.2968496E+01  0.6951602E-04 -0.2196028E+01  0.6061067E+02 -0.1585471E+01  0.8883130E-06  0.4483618E+00  0.2834554E+02 -0.3036593E+01  0.3545972E-04 -0.1601367E+01
  0.1260000E+02  0.1256195E+03 -0.2901301E+01  0.1229630E-04  0.2955873E+01  0.5785583E+02 -0.1594885E+01  0.1276777E-05  0.4844187E+00  0.2796778E+02 -0.2994878E+01  0.1868846E-04  0.1296512E+01
  0.1270000E+02  0.1167017E+03 -0.2824648E+01  0.5707659E-04  0.1954461E+01  0.5488871E+02 -0.1603981E+01  0.4460028E-05 -0.2901441E+00  0.2755069E+02 -0.2950093E+01  0.1360418E-04  0.1694043E+01
  0.1280000E+02  0.1084343E+03 -0.2737652E+01  0.3354458E-04 -0.2761829E+01  0.5171864E+02 -0.1612999E+01  0.1643297E-05 -0.2933922E+01  0.2710105E+02 -0.2902377E+01  0.4855926E-05  0.2090129E+01
  0.1290000E+02  0.1008975E+03 -0.2639642E+01  0.1697997E-04 -0.7355019E+00  0.4837199E+02 -0.1623819E+01  0.4099322E-05 -0.1624352E+00  0.2660435E+02 -0.2851160E+01  0.1035744E-04  0.1132486E+01
  0.1300000E+02  0.9402104E+02 -0.2528313E+01  0.1297628E-04  0.1679456E+01  0.4489585E+02 -0.1635111E+01  0.5775350E-06  0.3859594E+00  0.2603089E+02 -0.2796141E+01  0.8540764E-05 -0.1315315E+01
  0.1310000E+02  0.8794450E+02 -0.2404315E+01  0.5484377E-04 -0.6819149E+00  0.4135389E+02 -0.1648990E+01  0.2214331E-05 -0.3075391E+01  0.2536953E+02 -0.2737128E+01  0.1027790E-04  0.2770959E+01
  0.1320000E+02  0.8279309E+02 -0.2269356E+01  0.4446495E-04 -0.1193570E+01  0.3773862E+02 -0.1665351E+01  0.2645644E-05 -0.2919574E+01  0.2462463E+02 -0.2675185E+01  0.3629455E-04  0.1685661E+01
  0.1330000E+02  0.7862840E+02 -0.2123432E+01  0.1946192E-04  0.8006426E+00  0.3411868E+02 -0.1685475E+01  0.9357180E-06  0.2279160E+01  0.2378339E+02 -0.2608811E+01  0.1710436E-04 -0.1649941E+01
  0.1340000E+02  0.7548517E+02 -0.1972445E+01  0.3939823E-04 -0.3861614E+00  0.3051485E+02 -0.1710329E+01  0.3164874E-05 -0.2364901E+01  0.2287256E+02 -0.2540285E+01  0.1345664E-04  0.1618422E+01
  0.1350000E+02  0.7313120E+02 -0.1818564E+01  0.2409850E-04 -0.4926865E+00  0.2699461E+02 -0.1741015E+01  0.1146099E-04  0.1616034E+01  0.2185021E+02 -0.2469285E+01  0.5923161E-05 -0.2814637E+01
  0.1360000E+02  0.7158514E+02 -0.1665562E+01  0.7063687E-04 -0.1256571E+00  0.2353670E+02 -0.1779448E+01  0.3188101E-05  0.1823742E+01  0.2076487E+02 -0.2395845E+01  0.1269796E-04 -0.3693686E+00
  0.1370000E+02  0.7070986E+02 -0.1520233E+01  0.3340275E-04  0.8717068E-01  0.2022017E+02 -0.1829010E+01  0.1253066E-05 -0.1861774E-01  0.1963390E+02 -0.2321110E+01  0.1153615E-04  0.3311992E+00
  0.1380000E+02  0.7016872E+02 -0.1382590E+01  0.2051004E-05  0.2367513E+01  0.1704431E+02 -0.1894200E+01  0.1736952E-05 -0.2356751E+01  0.1845813E+02 -0.2245294E+01  0.6691007E-05 -0.2063582E+01
  0.1390000E+02  0.6972355E+02 -0.1254727E+01  0.4142231E-04  0.3108153E+01  0.1406531E+02 -0.1982034E+01  0.3630981E-06  0.2811248E+01  0.1723646E+02 -0.2169262E+01  0.1117022E-04  0.1629861E+01
  0.1400000E+02  0.6922912E+02 -0.1138057E+01  0.9327505E-05  0.4317224E-01  0.1132944E+02 -0.2106164E+01  0.6269893E-06 -0.1993854E+01  0.1601522E+02 -0.2093504E+01  0.2306871E-04  0.1797981E+01
  0.1410000E+02  0.6850176E+02 -0.1030586E+01  0.7312831E-05 -0.1008528E+01  0.8929753E+01 -0.2289108E+01  0.2492706E-06  0.1107458E+00  0.1477950E+02 -0.2017896E+01  0.2022221E-04 -0.6683887E-01
  0.1420000E+02  0.6747144E+02 -0.9329764E+00  0.5849838E-05 -0.2371055E+01  0.7042042E+01 -0.2566789E+01  0.8496925E-06 -0.2734535E+01  0.1356804E+02 -0.1942517E+01  0.1667286E-04 -0.2486112E+00
  0.1430000E+02  0.6589732E+02 -0.8420203E+00  0.2996240E-05  0.2481819E+01  0.5968235E+01 -0.2964076E+01  0.1435182E-06  0.1204734E+01  0.1234725E+02 -0.1868958E+01  0.7438910E-05  0.1358405E+01
  0.1440000E+02  0.6386199E+02 -0.7564341E+00  0.2340694E-04 -0.2860556E+01  0.5997294E+01  0.2869105E+01  0.2887946E-05 -0.1307463E+01  0.1114944E+02 -0.1795389E+01  0.8022467E-05 -0.1805418E+01
  0.1450000E+02  0.6131030E+02 -0.6771244E+00  0.1288310E-04  0.2519173E+01  0.7012707E+01  0.2501926E+01  0.1434812E-05 -0.2711402E+01  0.9981276E+01 -0.1723660E+01  0.3553047E-05  0.1918471E+01
  0.1460000E+02  0.5817526E+02 -0.5980998E+00  0.2854229E-04  0.2201138E+01  0.8619944E+01  0.2255361E+01  0.4217829E-05 -0.2400505E+01  0.8814441E+01 -0.1652113E+01  0.5115192E-05 -0.1016961E+01
  0.1470000E+02  0.5449670E+02 -0.5200787E+00  0.4566473E-04 -0.3090441E+01  0.1054284E+02  0.2096845E+01  0.5139485E-05 -0.9601381E-01  0.7664188E+01 -0.1582895E+01  0.4864749E-05 -0.2666327E+01
  0.1480000E+02  0.5031308E+02 -0.4399261E+00  0.2967343E-04 -0.3503584E+00  0.1264289E+02  0.1995680E+01  0.3752956E-05 -0.3131553E+01  0.6524814E+01 -0.1515744E+01  0.1560198E-05  0.1830341E+01
  0.1490000E+02  0.4569965E+02 -0.3538480E+00  0.3007542E-04 -0.2965351E+01  0.1486338E+02  0.1934434E+01  0.1603621E-05  0.1211605E+01  0.5390079E+01 -0.1450374E+01  0.6882200E-05 -0.2892486E+00
  0.1500000E+02  0.4072404E+02 -0.2571031E+00  0.4128550E-04 -0.3099126E+01  0.1711803E+02  0.1907089E+01  0.1868277E-05  0.7266554E+00  0.4259678E+01 -0.1389071E+01  0.1065804E-04 -0.2966847E+01
  0.1510000E+02  0.3546855E+02 -0.1382679E+00  0.7794115E-04  0.3132225E+01  0.1931368E+02  0.1907200E+01  0.1929400E-05  0.2504452E+00  0.3111127E+01 -0.1328752E+01  0.1364313E-05  0.2342658E+01