VARIABLES="w (rad/s)"
"abs(F   1   1)" "angle(F   1   1)"
"abs(F   1   2)" "angle(F   1   2)"
"abs(F   1   3)" "angle(F   1   3)"
"abs(F   1   4)" "angle(F   1   4)"
"abs(F   1   5)" "angle(F   1   5)"
"abs(F   1   6)" "angle(F   1   6)"
Zone t="Diffraction force - beta =   0.000 deg",I=   800,F=POINT
  0.1000000E+00  0.6985167E+01 -0.1570857E+01  0.1650885E-03  0.3140904E+01  0.3292002E+03 -0.4114106E-05  0.1321753E-04  0.3520888E-04  0.5554749E+00 -0.1570838E+01  0.1029488E-04 -0.3138130E+01
  0.2000000E+00  0.1297439E+02 -0.1570794E+01  0.3342347E-03 -0.3141123E+01  0.3279929E+03 -0.1638234E-04  0.3361487E-04 -0.3141509E+01  0.9782214E+00 -0.1570808E+01  0.2843465E-05 -0.3020409E+00
  0.3000000E+00  0.2112599E+02 -0.1570790E+01  0.9567477E-03 -0.7377348E-03  0.3259221E+03 -0.3717422E-04  0.5404896E-04 -0.3141325E+01  0.1671726E+01 -0.1570791E+01  0.1106418E-04 -0.3040887E+01
  0.4000000E+00  0.2823337E+02 -0.1570785E+01  0.3008559E-03  0.3141443E+01  0.3230552E+03 -0.6626802E-04  0.7218596E-05  0.3130142E+01  0.2226678E+01 -0.1570785E+01  0.8410922E-05 -0.2937041E+01
  0.5000000E+00  0.3536616E+02 -0.1570771E+01  0.4936299E-03 -0.5385296E-03  0.3193745E+03 -0.1039028E-03  0.3382328E-04  0.3140809E+01  0.2777542E+01 -0.1570770E+01  0.9465099E-05  0.2431458E+01
  0.6000000E+00  0.4255244E+02 -0.1570756E+01  0.8978271E-03  0.5381032E-04  0.3148749E+03 -0.1504656E-03  0.1560673E-04  0.3141156E+01  0.3323718E+01 -0.1570753E+01  0.9137148E-05 -0.3218302E+00
  0.7000000E+00  0.4978371E+02 -0.1570744E+01  0.1065241E-02  0.3358158E-02  0.3095845E+03 -0.2052648E-03  0.8195205E-05 -0.1085863E-02  0.3865623E+01 -0.1570754E+01  0.1128648E-04 -0.1230099E+01
  0.8000000E+00  0.5709172E+02 -0.1570734E+01  0.1794572E-03  0.3114885E+01  0.3034750E+03 -0.2701520E-03  0.6961728E-04  0.6323389E-04  0.4398843E+01 -0.1570728E+01  0.1412253E-04 -0.2639954E+01
  0.9000000E+00  0.6447984E+02 -0.1570712E+01  0.1702397E-03 -0.1536229E-02  0.2965850E+03 -0.3428319E-03  0.3277724E-04 -0.5017208E-03  0.4925092E+01 -0.1570703E+01  0.4672705E-05  0.8194753E+00
  0.1000000E+01  0.7195245E+02 -0.1570685E+01  0.1109357E-02  0.1351620E-03  0.2888757E+03 -0.4298392E-03  0.5753256E-04  0.1938566E-03  0.5444352E+01 -0.1570681E+01  0.1471145E-04 -0.4051160E-01
  0.1100000E+01  0.7951639E+02 -0.1570658E+01  0.1517745E-02  0.1017502E-02  0.2804169E+03 -0.5192491E-03  0.3696138E-04 -0.3141909E-02  0.5951688E+01 -0.1570654E+01  0.3326350E-04 -0.1418082E+01
  0.1200000E+01  0.8721242E+02 -0.1570633E+01  0.8714683E-03  0.3137498E+01  0.2711695E+03 -0.6187322E-03  0.3571297E-04  0.3141495E+01  0.6447760E+01 -0.1570626E+01  0.1889580E-04  0.7010524E+00
  0.1300000E+01  0.9505286E+02 -0.1570592E+01  0.6070898E-04 -0.3115453E+01  0.2611168E+03 -0.7498254E-03  0.7276089E-04  0.3812544E-02  0.6933343E+01 -0.1570587E+01  0.2272166E-04  0.2818358E+01
  0.1400000E+01  0.1030139E+03 -0.1570539E+01  0.3488795E-03  0.3563659E-01  0.2503673E+03 -0.8576383E-03  0.2589540E-04  0.3140892E+01  0.7403306E+01 -0.1570538E+01  0.2892952E-04 -0.1944166E+01
  0.1500000E+01  0.1111560E+03 -0.1570487E+01  0.7771245E-04 -0.1887776E-01  0.2388605E+03 -0.9807760E-03  0.1485712E-04 -0.3130982E+01  0.7863869E+01 -0.1570488E+01  0.1217599E-04 -0.5597030E+00
  0.1600000E+01  0.1194472E+03 -0.1570418E+01  0.1925726E-04  0.2845662E+01  0.2266115E+03 -0.1103706E-02  0.1441603E-04 -0.3135415E+01  0.8303082E+01 -0.1570420E+01  0.1377698E-04 -0.6959286E+00
  0.1700000E+01  0.1279508E+03 -0.1570342E+01  0.8556075E-03  0.3133993E+01  0.2135717E+03 -0.1363754E-02  0.8655142E-04  0.3138852E+01  0.8723391E+01 -0.1570342E+01  0.8485416E-05 -0.7488724E+00
  0.1800000E+01  0.1366984E+03 -0.1570251E+01  0.4570914E-03 -0.1611119E-01  0.1999945E+03 -0.1430548E-02  0.1127772E-03  0.3139153E+01  0.9127908E+01 -0.1570254E+01  0.7076846E-05 -0.2497648E+01
  0.1900000E+01  0.1456908E+03 -0.1570141E+01  0.9548180E-03 -0.3134470E+01  0.1856793E+03 -0.1559926E-02  0.4686098E-04 -0.3136349E+01  0.9511534E+01 -0.1570141E+01  0.1766577E-04 -0.2549963E+01
  0.2000000E+01  0.1549075E+03 -0.1570009E+01  0.1967035E-02 -0.5969211E-03  0.1707000E+03 -0.1636040E-02  0.1009799E-03  0.3137808E+01  0.9868020E+01 -0.1570009E+01  0.3309684E-04 -0.1443339E+01
  0.2100000E+01  0.1644111E+03 -0.1569851E+01  0.1482085E-02 -0.3141164E+01  0.1549381E+03 -0.2384081E-02  0.6191525E-04 -0.4328906E-02  0.1020254E+02 -0.1569856E+01  0.1424557E-04  0.1634924E+01
  0.2200000E+01  0.1741940E+03 -0.1569664E+01  0.1123954E-04 -0.2439359E+01  0.1388871E+03 -0.2064329E-02  0.1075503E-03 -0.2036978E-02  0.1051034E+02 -0.1569669E+01  0.8945463E-05  0.3027595E+01
  0.2300000E+01  0.1842867E+03 -0.1569443E+01  0.5060578E-03  0.3127711E+01  0.1221779E+03 -0.2097307E-02  0.6708929E-04  0.3451756E-02  0.1078311E+02 -0.1569445E+01  0.2466249E-04  0.1534640E+01
  0.2400000E+01  0.1947123E+03 -0.1569174E+01  0.1613667E-02 -0.3139879E+01  0.1049127E+03 -0.2050471E-02  0.3932424E-04 -0.1158339E-01  0.1101816E+02 -0.1569175E+01  0.2097644E-04  0.2170695E+01
  0.2500000E+01  0.2055437E+03 -0.1568849E+01  0.2276259E-02 -0.1979757E-02  0.8711643E+02 -0.2542558E-02  0.2973486E-04  0.3133658E+01  0.1122352E+02 -0.1568853E+01  0.5882815E-04 -0.1853891E+01
  0.2600000E+01  0.2167175E+03 -0.1568470E+01  0.2621191E-03  0.3093287E+01  0.6890756E+02 -0.2804315E-02  0.1525852E-04  0.3134186E+01  0.1138617E+02 -0.1568476E+01  0.1669611E-04 -0.2463073E+01
  0.2700000E+01  0.2282103E+03 -0.1568023E+01  0.2847426E-03  0.2894611E-01  0.5044784E+02 -0.1948467E-02  0.1061983E-04  0.3124623E+01  0.1150201E+02 -0.1568035E+01  0.4794224E-05 -0.8538836E+00
  0.2800000E+01  0.2400282E+03 -0.1567492E+01  0.1642838E-04 -0.2545945E+01  0.3155401E+02 -0.6284746E-03  0.4974491E-04  0.8580528E-03  0.1156815E+02 -0.1567513E+01  0.1015621E-04 -0.1037484E+01
  0.2900000E+01  0.2522012E+03 -0.1566861E+01  0.1084328E-02  0.3126822E+01  0.1232897E+02  0.6305896E-02  0.3403085E-04 -0.3115495E+01  0.1159014E+02 -0.1566876E+01  0.2396355E-04  0.1178484E+01
  0.3000000E+01  0.2646066E+03 -0.1566118E+01  0.1815584E-02 -0.3141164E+01  0.7213878E+01 -0.3117455E+01  0.6477840E-05 -0.3113272E+01  0.1153846E+02 -0.1566161E+01  0.9257017E-04 -0.1515744E+01
  0.3100000E+01  0.2772977E+03 -0.1565274E+01  0.3367580E-03  0.3122322E+01  0.2671441E+02  0.3138368E+01  0.7595096E-04  0.8319457E-02  0.1142090E+02 -0.1565292E+01  0.5149946E-04 -0.1552289E+01
  0.3200000E+01  0.2902502E+03 -0.1564314E+01  0.7773866E-04  0.3096928E+01  0.4631046E+02  0.3138748E+01  0.8911592E-04  0.3421309E-02  0.1123456E+02 -0.1564336E+01  0.3387715E-04  0.1449338E+01
  0.3300000E+01  0.3034393E+03 -0.1563212E+01  0.4150663E-03 -0.2525510E-01  0.6611039E+02  0.3139405E+01  0.3078610E-04 -0.8066458E-02  0.1097962E+02 -0.1563253E+01  0.2649355E-04  0.2090289E+01
  0.3400000E+01  0.3167047E+03 -0.1561942E+01  0.1455592E-02 -0.3127939E+01  0.8599136E+02  0.3140302E+01  0.1094828E-04  0.4074339E-01  0.1063800E+02 -0.1561988E+01  0.2011207E-03 -0.1604973E+01
  0.3500000E+01  0.3299829E+03 -0.1560485E+01  0.3168506E-03 -0.1602141E-01  0.1057995E+03 -0.3138317E+01  0.1308450E-04 -0.3079502E+01  0.1020778E+02 -0.1560624E+01  0.8653670E-04 -0.1548103E+01
  0.3600000E+01  0.3431933E+03 -0.1558873E+01  0.1754725E-03 -0.3107700E+01  0.1255518E+03 -0.3139076E+01  0.6626301E-05  0.2992094E+01  0.9692953E+01 -0.1558982E+01  0.1515804E-03  0.1559964E+01
  0.3700000E+01  0.3563843E+03 -0.1557111E+01  0.1659483E-02 -0.6008943E-02  0.1450023E+03 -0.3137792E+01  0.3928734E-05 -0.3052107E+01  0.9111167E+01 -0.1557259E+01  0.2043745E-04  0.1491194E+01
  0.3800000E+01  0.3692140E+03 -0.1555167E+01  0.6414077E-03  0.6685036E-01  0.1644250E+03 -0.3135972E+01  0.9984961E-04 -0.3137617E+01  0.8405406E+01 -0.1555328E+01  0.9225920E-04  0.1548209E+01
  0.3900000E+01  0.3818022E+03 -0.1553040E+01  0.2871278E-04 -0.1065346E+01  0.1837061E+03 -0.3133709E+01  0.4840756E-04  0.3138493E+01  0.7598119E+01 -0.1553171E+01  0.5298188E-04 -0.1533870E+01
  0.4000000E+01  0.3940517E+03 -0.1550705E+01  0.5592143E-03  0.3138042E+01  0.2027130E+03 -0.3130933E+01  0.3744603E-04 -0.3106292E+01  0.6686848E+01 -0.1550728E+01  0.3451423E-04 -0.1633704E+01
  0.4100000E+01  0.4059714E+03 -0.1548169E+01  0.7415777E-03  0.4741668E-01  0.2212177E+03 -0.3125893E+01  0.5180223E-04  0.1713612E-01  0.5685046E+01 -0.1548552E+01  0.2419168E-04 -0.1729417E+01
  0.4200000E+01  0.4174216E+03 -0.1545482E+01  0.2383586E-03 -0.3072673E+01  0.2397472E+03 -0.3124248E+01  0.1632976E-04  0.8582208E-01  0.4594816E+01 -0.1545435E+01  0.1777114E-04  0.2093949E+01
  0.4300000E+01  0.4282862E+03 -0.1542611E+01  0.1526751E-02 -0.3110667E+01  0.2576074E+03 -0.3120540E+01  0.3364933E-04 -0.1217621E-01  0.3404181E+01 -0.1542477E+01  0.5063319E-04 -0.1672246E+01
  0.4400000E+01  0.4384642E+03 -0.1539555E+01  0.1931749E-03  0.3081688E+01  0.2751352E+03 -0.3116260E+01  0.4120624E-04  0.1394383E-01  0.2107088E+01 -0.1538896E+01  0.7658287E-04  0.1755816E+01
  0.4500000E+01  0.4478903E+03 -0.1536330E+01  0.5847863E-03 -0.1311155E+00  0.2922839E+03 -0.3111417E+01  0.1174768E-04 -0.1875728E+00  0.7118248E+00 -0.1532251E+01  0.5872889E-04 -0.1613805E+01
  0.4600000E+01  0.4566323E+03 -0.1532933E+01  0.2969384E-03 -0.3050183E+01  0.3088655E+03 -0.3105941E+01  0.2343240E-04 -0.1285466E+00  0.7537127E+00  0.1602334E+01  0.5646343E-04  0.1345135E+01
  0.4700000E+01  0.4644985E+03 -0.1529377E+01  0.2517742E-04 -0.1202380E+01  0.3246393E+03 -0.3099246E+01  0.1126361E-04 -0.2925819E+01  0.2303800E+01  0.1610144E+01  0.4294285E-04 -0.1877099E+01
  0.4800000E+01  0.4713350E+03 -0.1525702E+01  0.7278466E-04 -0.1043588E+01  0.3401417E+03 -0.3092949E+01  0.1525663E-04 -0.2122925E+00  0.3944030E+01  0.1613558E+01  0.4526415E-04  0.1104393E+01
  0.4900000E+01  0.4772148E+03 -0.1521947E+01  0.1542578E-03  0.3108792E+01  0.3546182E+03 -0.3085866E+01  0.4123922E-04  0.3131952E+01  0.5645775E+01  0.1617230E+01  0.1252848E-04 -0.1471921E+01
  0.5000000E+01  0.4820656E+03 -0.1518113E+01  0.1651535E-03  0.2812364E+01  0.3684027E+03 -0.3077942E+01  0.3306235E-05  0.2381456E+01  0.7412168E+01  0.1620891E+01  0.5251645E-04 -0.1471254E+01
  0.5100000E+01  0.4858151E+03 -0.1514218E+01  0.1622447E-03 -0.3134142E-02  0.3816077E+03 -0.3069096E+01  0.1117162E-04  0.2639856E+01  0.9235231E+01  0.1624470E+01  0.9079296E-04  0.1580865E+01
  0.5200000E+01  0.4884285E+03 -0.1510290E+01  0.3177249E-03  0.3077959E+01  0.3940130E+03 -0.3059344E+01  0.2169304E-04 -0.3028900E+01  0.1109718E+02  0.1627982E+01  0.1632681E-03  0.1522200E+01
  0.5300000E+01  0.4898746E+03 -0.1506410E+01  0.1531417E-03 -0.7203586E+00  0.4054726E+03 -0.3048626E+01  0.6179530E-05  0.1178453E+00  0.1298699E+02  0.1631685E+01  0.8663585E-04 -0.1480389E+01
  0.5400000E+01  0.4900688E+03 -0.1502610E+01  0.2445372E-03 -0.3920724E-01  0.4158616E+03 -0.3036728E+01  0.5953541E-05  0.3006720E+01  0.1490064E+02  0.1635400E+01  0.1063053E-03  0.1633493E+01
  0.5500000E+01  0.4888783E+03 -0.1498892E+01  0.2639742E-03  0.2570936E+01  0.4252410E+03 -0.3023860E+01  0.5604781E-05 -0.7655684E+00  0.1684246E+02  0.1638657E+01  0.1177470E-04  0.2162707E+01
  0.5600000E+01  0.4863926E+03 -0.1495321E+01  0.1352867E-03 -0.2394513E+01  0.4335858E+03 -0.3010229E+01  0.6099078E-05 -0.3096743E+01  0.1878023E+02  0.1641488E+01  0.3390276E-04  0.1737175E+01
  0.5700000E+01  0.4826028E+03 -0.1491934E+01  0.1001332E-02  0.6107003E-01  0.4405779E+03 -0.2995456E+01  0.2915465E-05 -0.8891273E+00  0.2070724E+02  0.1644036E+01  0.3194794E-04  0.2050298E+01
  0.5800000E+01  0.4775941E+03 -0.1488857E+01  0.1066436E-02  0.3013616E+01  0.4466449E+03 -0.2979158E+01  0.7638132E-05  0.3491154E+00  0.2261196E+02  0.1646496E+01  0.9336568E-04 -0.1611545E+01
  0.5900000E+01  0.4712958E+03 -0.1486122E+01  0.1238881E-03 -0.1662578E+01  0.4514004E+03 -0.2961212E+01  0.1502116E-04  0.2723360E+01  0.2448886E+02  0.1648637E+01  0.7874391E-04  0.1643509E+01
  0.6000000E+01  0.4637038E+03 -0.1483786E+01  0.1461024E-03  0.2973149E+01  0.4556300E+03 -0.2941673E+01  0.5776933E-05 -0.2725301E+01  0.2632882E+02  0.1650361E+01  0.1871012E-03  0.1589338E+01
  0.6100000E+01  0.4548320E+03 -0.1481800E+01  0.6664564E-03  0.6573887E+00  0.4576268E+03 -0.2920657E+01  0.2385421E-04 -0.5138865E-01  0.2811427E+02  0.1651361E+01  0.5207710E-04  0.1563326E+01
  0.6200000E+01  0.4447441E+03 -0.1480293E+01  0.3098273E-03 -0.1658089E+00  0.4583363E+03 -0.2897866E+01  0.1975033E-04 -0.2944337E+01  0.2984179E+02  0.1651831E+01  0.1850920E-03  0.1608523E+01
  0.6300000E+01  0.4334554E+03 -0.1479363E+01  0.6194908E-03  0.3034241E+01  0.4575911E+03 -0.2873279E+01  0.6356786E-05  0.2156519E+01  0.3150255E+02  0.1651854E+01  0.1408895E-03 -0.1460150E+01
  0.6400000E+01  0.4210398E+03 -0.1479060E+01  0.9305508E-04 -0.2209552E+00  0.4552324E+03 -0.2847070E+01  0.2081529E-04 -0.4113596E+00  0.3307592E+02  0.1651142E+01  0.1132681E-03 -0.1508212E+01
  0.6500000E+01  0.4075799E+03 -0.1479433E+01  0.3557284E-03  0.2946142E+01  0.4512707E+03 -0.2819058E+01  0.1261255E-04  0.1523447E+01  0.3455920E+02  0.1649714E+01  0.2951699E-04 -0.1721409E+01
  0.6600000E+01  0.3931071E+03 -0.1480526E+01  0.2229256E-03  0.2744290E+01  0.4457394E+03 -0.2789067E+01  0.1553891E-04 -0.2976345E+01  0.3596190E+02  0.1647622E+01  0.3983541E-04 -0.1523042E+01
  0.6700000E+01  0.3776502E+03 -0.1482338E+01  0.2270748E-03  0.4733028E+00  0.4388217E+03 -0.2756633E+01  0.1272882E-04 -0.2986349E+01  0.3729230E+02  0.1644803E+01  0.9841953E-04 -0.1573056E+01
  0.6800000E+01  0.3612698E+03 -0.1484979E+01  0.1969425E-03 -0.7612467E+00  0.4303925E+03 -0.2721885E+01  0.7341614E-05  0.1580659E+01  0.3854145E+02  0.1641232E+01  0.2549029E-04 -0.1422394E+01
  0.6900000E+01  0.3440162E+03 -0.1488541E+01  0.3626454E-03 -0.7290810E+00  0.4203444E+03 -0.2684952E+01  0.1546652E-04 -0.1824662E+01  0.3970718E+02  0.1636868E+01  0.4166354E-04 -0.1980354E+01
  0.7000000E+01  0.3259824E+03 -0.1493095E+01  0.2363052E-03 -0.2285053E+01  0.4086734E+03 -0.2645979E+01  0.7346190E-05  0.2202125E+01  0.4078267E+02  0.1631732E+01  0.4939365E-04 -0.1731913E+01
  0.7100000E+01  0.3072343E+03 -0.1498733E+01  0.7315564E-04 -0.7596315E+00  0.3954452E+03 -0.2604970E+01  0.6730301E-05 -0.8491911E+00  0.4176771E+02  0.1625899E+01  0.2394218E-04 -0.1973261E+01
  0.7200000E+01  0.2877859E+03 -0.1505480E+01  0.1774319E-03  0.4828995E-03  0.3808555E+03 -0.2562058E+01  0.5389170E-05  0.1194127E+01  0.4267208E+02  0.1619209E+01  0.3360193E-04  0.1917898E+01
  0.7300000E+01  0.2676926E+03 -0.1513572E+01  0.1602034E-03  0.5719075E+00  0.3650495E+03 -0.2517376E+01  0.5413102E-05  0.4545796E+00  0.4349736E+02  0.1611708E+01  0.9797409E-04  0.1443132E+01
  0.7400000E+01  0.2470450E+03 -0.1523265E+01  0.3182590E-03 -0.2343073E+01  0.3482431E+03 -0.2471039E+01  0.8864434E-05  0.6604788E+00  0.4423763E+02  0.1603426E+01  0.9617175E-04 -0.1669446E+01
  0.7500000E+01  0.2258840E+03 -0.1534879E+01  0.7215908E-04 -0.2651887E+01  0.3306584E+03 -0.2422877E+01  0.3674075E-05 -0.1887714E+01  0.4490798E+02  0.1594566E+01  0.4773399E-05 -0.1912562E+01
  0.7600000E+01  0.2042537E+03 -0.1548811E+01  0.7299170E-04 -0.1715068E+01  0.3125473E+03 -0.2372916E+01  0.1590268E-04  0.2744158E+01  0.4552053E+02  0.1585289E+01  0.3849938E-04 -0.1845990E+01
  0.7700000E+01  0.1821642E+03 -0.1565714E+01  0.2993325E-04  0.3118440E+01  0.2942540E+03 -0.2321015E+01  0.5272901E-05 -0.2446672E+01  0.4608984E+02  0.1575610E+01  0.4777289E-04  0.1617932E+01
  0.7800000E+01  0.1596616E+03 -0.1586802E+01  0.2928586E-03  0.9757904E+00  0.2759911E+03 -0.2267123E+01  0.1123860E-04  0.1994857E+00  0.4662091E+02  0.1565695E+01  0.7159063E-05 -0.4302108E+00
  0.7900000E+01  0.1367969E+03 -0.1614119E+01  0.1101745E-03  0.2344192E+01  0.2579152E+03 -0.2211479E+01  0.8168152E-05 -0.2294447E+01  0.4711467E+02  0.1555579E+01  0.7568204E-04 -0.1751431E+01
  0.8000000E+01  0.1136444E+03 -0.1651399E+01  0.8714430E-04 -0.2174402E+01  0.2402420E+03 -0.2154021E+01  0.1738095E-05  0.1128500E+01  0.4757198E+02  0.1545326E+01  0.1007837E-04  0.5299049E-01
  0.8100000E+01  0.9030709E+02 -0.1706478E+01  0.5242703E-04  0.1206058E+01  0.2231512E+03 -0.2094872E+01  0.3690426E-05  0.5542476E+00  0.4800081E+02  0.1535136E+01  0.1157118E-03  0.1627928E+01
  0.8200000E+01  0.6696991E+02 -0.1799242E+01  0.9498183E-04 -0.4071731E+00  0.2068908E+03 -0.2033729E+01  0.1100601E-04 -0.8729027E-02  0.4842246E+02  0.1525344E+01  0.6854189E-04 -0.1716962E+01
  0.8300001E+01  0.4436622E+02 -0.1987480E+01  0.3229314E-04  0.6554987E+00  0.1916399E+03 -0.1970656E+01  0.4992883E-05  0.5908966E+00  0.4883278E+02  0.1515939E+01  0.1136523E-03 -0.1463799E+01
  0.8400001E+01  0.2577522E+02 -0.2495360E+01  0.6284715E-04 -0.2844635E+01  0.1775022E+03 -0.1905777E+01  0.4449620E-05  0.7501753E-01  0.4923595E+02  0.1507015E+01  0.5151393E-04 -0.9755649E+00
  0.8500001E+01  0.2516330E+02  0.2735194E+01  0.7453092E-04  0.1090041E+00  0.1645923E+03 -0.1839177E+01  0.1192140E-04 -0.1837836E+00  0.4964691E+02  0.1498911E+01  0.2418005E-04  0.1987571E+01
  0.8600000E+01  0.4402783E+02  0.2191788E+01  0.1721874E-03  0.3079460E+01  0.1529601E+03 -0.1771471E+01  0.3287097E-05 -0.2765989E+01  0.5006993E+02  0.1491980E+01  0.8147858E-04 -0.1348467E+01
  0.8700000E+01  0.6811959E+02  0.1996067E+01  0.1240328E-04  0.1168369E+01  0.1426139E+03 -0.1703174E+01  0.2562100E-05  0.6991673E-01  0.5050903E+02  0.1486367E+01  0.3342494E-04 -0.6154428E+00
  0.8800001E+01  0.9386893E+02  0.1904341E+01  0.9619516E-04 -0.8899424E-01  0.1335374E+03 -0.1634401E+01  0.2024822E-05  0.1106030E+01  0.5098002E+02  0.1482774E+01  0.7490752E-04  0.2096373E+01
  0.8900001E+01  0.1204838E+03  0.1852929E+01  0.1369140E-03 -0.1470360E+00  0.1256917E+03 -0.1565965E+01  0.3510766E-05 -0.1106734E+01  0.5148663E+02  0.1481275E+01  0.1133414E-04 -0.1831155E+01
  0.9000001E+01  0.1476514E+03  0.1821982E+01  0.3444427E-04  0.3094908E+01  0.1189789E+03 -0.1499692E+01  0.2874355E-05 -0.3101424E+01  0.5201588E+02  0.1482097E+01  0.1227621E-03  0.1838910E+01
  0.9100000E+01  0.1752490E+03  0.1803350E+01  0.3964199E-04  0.2969430E+01  0.1132480E+03 -0.1436640E+01  0.2919960E-05 -0.2214220E+01  0.5257267E+02  0.1485729E+01  0.4426024E-04  0.1888791E+01
  0.9200000E+01  0.2031740E+03  0.1792722E+01  0.8530500E-04 -0.3028266E+01  0.1083720E+03 -0.1377659E+01  0.1566801E-04 -0.1488386E+00  0.5315894E+02  0.1492205E+01  0.2696126E-04 -0.3075905E+01
  0.9300001E+01  0.2313722E+03  0.1787912E+01  0.9584326E-04  0.3711449E+00  0.1042070E+03 -0.1324128E+01  0.4837573E-05  0.1227812E+01  0.5378017E+02  0.1501615E+01  0.6679859E-04 -0.1874246E+01
  0.9400001E+01  0.2595550E+03  0.1788554E+01  0.6759408E-04  0.5777153E+00  0.1006229E+03 -0.1276249E+01  0.1694003E-04  0.2529450E+01  0.5439816E+02  0.1514663E+01  0.1313762E-04 -0.2222712E+01
  0.9500001E+01  0.2875556E+03  0.1793647E+01  0.4468469E-04  0.2699161E+01  0.9753574E+02 -0.1235230E+01  0.1211812E-04  0.2808917E+01  0.5500982E+02  0.1531407E+01  0.7672092E-05  0.2260736E+01
  0.9600000E+01  0.3153546E+03  0.1802494E+01  0.5937589E-04 -0.1341933E+01  0.9489733E+02 -0.1201272E+01  0.1187565E-04  0.4071871E+00  0.5564792E+02  0.1551779E+01  0.4599324E-04 -0.1574961E+01
  0.9700001E+01  0.3424380E+03  0.1815172E+01  0.1468648E-03  0.1371046E-01  0.9257940E+02 -0.1174643E+01  0.1391744E-04  0.4560223E+00  0.5624796E+02  0.1576250E+01  0.2250639E-04 -0.1401850E+01
  0.9800001E+01  0.3683568E+03  0.1831378E+01  0.1401451E-03  0.2894358E+01  0.9052697E+02 -0.1155879E+01  0.1537827E-04  0.9192234E-01  0.5677644E+02  0.1604503E+01  0.1897195E-04 -0.1464767E+01
  0.9900001E+01  0.3929973E+03  0.1850771E+01  0.5870447E-04  0.2492329E+01  0.8867575E+02 -0.1144600E+01  0.5514008E-05  0.1853632E+01  0.5725721E+02  0.1636587E+01  0.1353696E-04  0.1995067E+01
  0.1000000E+02  0.4157716E+03  0.1873039E+01  0.7243761E-04 -0.3860163E+00  0.8697810E+02 -0.1140143E+01  0.3258962E-05 -0.1246141E+01  0.5763450E+02  0.1672593E+01  0.4481459E-04 -0.1410178E+01
  0.1010000E+02  0.4363056E+03  0.1897786E+01  0.1901400E-03 -0.3054758E+01  0.8540879E+02 -0.1142648E+01  0.2854259E-04  0.8767416E-01  0.5790388E+02  0.1711941E+01  0.3908726E-04  0.1730129E+01
  0.1020000E+02  0.4539783E+03  0.1924411E+01  0.6288134E-04  0.2752517E+01  0.8394128E+02 -0.1152120E+01  0.1708970E-04  0.2462814E+00  0.5801140E+02  0.1753839E+01  0.3384475E-04 -0.1579553E+01
  0.1030000E+02  0.4685262E+03  0.1952531E+01  0.1485999E-03  0.2995750E+01  0.8257016E+02 -0.1168034E+01  0.5005293E-05 -0.2869792E+01  0.5794915E+02  0.1798271E+01  0.2730868E-04 -0.1542211E+01
  0.1040000E+02  0.4798072E+03  0.1981749E+01  0.1756092E-03 -0.2232378E-01  0.8126299E+02 -0.1189818E+01  0.1498499E-04  0.3097353E+01  0.5774572E+02  0.1844753E+01  0.2873165E-04  0.1433176E+01
  0.1050000E+02  0.4873449E+03  0.2010589E+01  0.9076286E-04 -0.1805830E-01  0.8002492E+02 -0.1217031E+01  0.2261069E-04 -0.3082098E+01  0.5734479E+02  0.1891353E+01  0.3498655E-05  0.2739766E+01
  0.1060000E+02  0.4912017E+03  0.2038858E+01  0.2937035E-03 -0.7834735E-02  0.7886327E+02 -0.1249300E+01  0.1189183E-04  0.3141330E+01  0.5677032E+02  0.1937875E+01  0.3160436E-04 -0.1752022E+01
  0.1070000E+02  0.4915434E+03  0.2066300E+01  0.2593700E-03 -0.4291318E-01  0.7779774E+02 -0.1286254E+01  0.2073189E-04  0.3124775E+01  0.5605254E+02  0.1984215E+01  0.1221079E-04 -0.1453524E+01
  0.1080000E+02  0.4885131E+03  0.2091777E+01  0.2507193E-03  0.3444846E-01  0.7683870E+02 -0.1327328E+01  0.1002361E-05  0.2810202E+01  0.5518200E+02  0.2028752E+01  0.1117224E-04 -0.2417433E+01
  0.1090000E+02  0.4823532E+03  0.2114908E+01  0.1669969E-03 -0.1398891E+00  0.7601984E+02 -0.1372045E+01  0.2770546E-05  0.1773661E+01  0.5419292E+02  0.2070985E+01  0.1256849E-04 -0.2948773E+01
  0.1100000E+02  0.4736287E+03  0.2135696E+01  0.1934812E-03  0.5011993E-01  0.7533823E+02 -0.1419008E+01  0.9490475E-05 -0.3035951E+01  0.5313067E+02  0.2111017E+01  0.1077942E-04 -0.1823049E+01
  0.1110000E+02  0.4626267E+03  0.2153883E+01  0.1522697E-03  0.3098705E+01  0.7482218E+02 -0.1467785E+01  0.3203005E-04  0.3034437E+01  0.5200470E+02  0.2148622E+01  0.8066837E-05  0.1541075E+01
  0.1120000E+02  0.4497172E+03  0.2168889E+01  0.1463200E-03  0.2870689E+01  0.7447723E+02 -0.1517938E+01  0.8781822E-05 -0.2788997E+01  0.5084304E+02  0.2182704E+01  0.7705737E-05 -0.2837017E+01
  0.1130000E+02  0.4352932E+03  0.2181319E+01  0.3039402E-03  0.1938205E-01  0.7428945E+02 -0.1568138E+01  0.1727851E-05 -0.2554349E+01  0.4965347E+02  0.2214037E+01  0.1463375E-04 -0.2192011E+01
  0.1140000E+02  0.4196524E+03  0.2191303E+01  0.1993760E-03  0.3033807E+01  0.7421364E+02 -0.1618104E+01  0.2106132E-04 -0.2884067E+01  0.4845216E+02  0.2243098E+01  0.4221438E-05 -0.2780448E+01
  0.1150000E+02  0.4033814E+03  0.2198719E+01  0.4404903E-04  0.4190980E+00  0.7418747E+02 -0.1666619E+01  0.1411954E-04 -0.2658028E+01  0.4730271E+02  0.2269054E+01  0.4455596E-05 -0.1085073E+01
  0.1160000E+02  0.3864683E+03  0.2203981E+01  0.2125887E-03  0.2834118E+01  0.7421333E+02 -0.1713396E+01  0.8179090E-05  0.3868119E+00  0.4616987E+02  0.2292657E+01  0.2635875E-05  0.1626233E-01
  0.1170000E+02  0.3690430E+03  0.2207400E+01  0.9109430E-04  0.2266845E+01  0.7422942E+02 -0.1758239E+01  0.4855154E-05  0.1002777E+01  0.4504168E+02  0.2314425E+01  0.1964279E-04  0.1524797E+01
  0.1180000E+02  0.3512927E+03  0.2209312E+01  0.1937576E-03  0.1674419E+00  0.7418510E+02 -0.1800621E+01  0.3775016E-04  0.4920446E-01  0.4393478E+02  0.2334470E+01  0.1225148E-04  0.1059083E+01
  0.1190000E+02  0.3333023E+03  0.2210074E+01  0.2361059E-03  0.4358882E-01  0.7405889E+02 -0.1840608E+01  0.2547890E-04 -0.5103333E+00  0.4284188E+02  0.2353326E+01  0.1016100E-04 -0.1865291E+01
  0.1200000E+02  0.3152551E+03  0.2210178E+01  0.2855850E-03 -0.2928057E+01  0.7368423E+02 -0.1878600E+01  0.9474831E-05 -0.4443500E+00  0.4177134E+02  0.2371608E+01  0.1511959E-04 -0.1500226E+01
  0.1210000E+02  0.2970475E+03  0.2209854E+01  0.5171798E-04 -0.2981542E+01  0.7313544E+02 -0.1914161E+01  0.8515348E-05  0.3331879E+00  0.4069362E+02  0.2389568E+01  0.2762916E-04 -0.1547613E+01
  0.1220000E+02  0.2786122E+03  0.2209406E+01  0.2653244E-04 -0.2776880E-01  0.7231442E+02 -0.1948154E+01  0.1803252E-04  0.1788573E+00  0.3958812E+02  0.2407780E+01  0.6563052E-05 -0.1576167E+01
  0.1230000E+02  0.2599929E+03  0.2209075E+01  0.3536810E-04 -0.1653627E+01  0.7120521E+02 -0.1980816E+01  0.2215076E-04 -0.3104080E-01  0.3843459E+02  0.2426598E+01  0.3038384E-04 -0.1580407E+01
  0.1240000E+02  0.2412581E+03  0.2209869E+01  0.5618522E-04 -0.2439133E+01  0.6981118E+02 -0.2013016E+01  0.2304752E-04 -0.5895783E-01  0.3725359E+02  0.2447153E+01  0.2165946E-04  0.1647269E+01
  0.1250000E+02  0.2223282E+03  0.2211933E+01  0.9083383E-04 -0.2454591E+01  0.6812590E+02 -0.2045144E+01  0.3885581E-05  0.1680600E+00  0.3601877E+02  0.2469678E+01  0.1922574E-04 -0.1624194E+01
  0.1260000E+02  0.2031512E+03  0.2215033E+01  0.3185345E-04  0.3046544E+01  0.6614719E+02 -0.2077397E+01  0.1155483E-05  0.2824288E+01  0.3468377E+02  0.2494271E+01  0.1371663E-04 -0.1205842E+01
  0.1270000E+02  0.1835847E+03  0.2219334E+01  0.5710264E-04  0.1182262E+01  0.6392916E+02 -0.2110008E+01  0.5073723E-05 -0.2373693E+00  0.3322418E+02  0.2521935E+01  0.3639031E-04  0.1603955E+01
  0.1280000E+02  0.1637671E+03  0.2225390E+01  0.1062574E-03 -0.3021847E+01  0.6147878E+02 -0.2143396E+01  0.8268552E-06 -0.8293906E+00  0.3165258E+02  0.2553179E+01  0.3778779E-05 -0.2716530E+01
  0.1290000E+02  0.1437998E+03  0.2233309E+01  0.2871521E-04 -0.3549254E+00  0.5886032E+02 -0.2179037E+01  0.2494967E-04 -0.2181416E-01  0.2995549E+02  0.2588558E+01  0.1528997E-04 -0.1284477E+01
  0.1300000E+02  0.1236021E+03  0.2242158E+01  0.8551687E-04  0.1430607E+00  0.5607118E+02 -0.2215899E+01  0.2526904E-05 -0.1171540E-01  0.2811880E+02  0.2628144E+01  0.1283971E-04  0.1434285E+01
  0.1310000E+02  0.1034223E+03  0.2251719E+01  0.9844644E-04 -0.3018546E+00  0.5320691E+02 -0.2255110E+01  0.9654969E-05 -0.2549375E-01  0.2614762E+02  0.2672451E+01  0.3158722E-04  0.1834800E+01
  0.1320000E+02  0.8351299E+02  0.2262140E+01  0.4236612E-04 -0.1403874E+01  0.5024435E+02 -0.2296930E+01  0.5824593E-05 -0.6653286E-01  0.2408572E+02  0.2721801E+01  0.4427469E-04  0.1674151E+01
  0.1330000E+02  0.6390233E+02  0.2272999E+01  0.1544532E-04  0.9996437E+00  0.4725093E+02 -0.2341628E+01  0.1196711E-05  0.3054384E+01  0.2192091E+02  0.2777889E+01  0.8990504E-05 -0.1672700E+01
  0.1340000E+02  0.4499242E+02  0.2286151E+01  0.8528704E-04 -0.2066240E+00  0.4423994E+02 -0.2389656E+01  0.4393048E-05 -0.2530489E+01  0.1974178E+02  0.2841694E+01  0.2673280E-04  0.1581765E+01
  0.1350000E+02  0.2692765E+02  0.2299674E+01  0.1336665E-04 -0.1844392E+01  0.4125528E+02 -0.2440733E+01  0.1276344E-04  0.1164633E+01  0.1754860E+02  0.2913808E+01  0.2337169E-04  0.1780559E+01
  0.1360000E+02  0.9830500E+01  0.2330965E+01  0.1106559E-03 -0.9538855E-01  0.3827630E+02 -0.2496116E+01  0.6209639E-05  0.6513573E+00  0.1540978E+02  0.2999040E+01  0.1334023E-04  0.4706864E+00
  0.1370000E+02  0.6076336E+01 -0.9420220E+00  0.5349651E-04  0.4559264E-01  0.3536425E+02 -0.2555856E+01  0.7125227E-06  0.1908170E-01  0.1339849E+02  0.3101518E+01  0.1111780E-04  0.2409505E+00
  0.1380000E+02  0.2065243E+02 -0.8819013E+00  0.3203125E-05  0.2474844E+01  0.3250753E+02 -0.2621295E+01  0.2159476E-05 -0.2636766E+01  0.1156890E+02 -0.3056679E+01  0.6428715E-05  0.2087569E+01
  0.1390000E+02  0.3383515E+02 -0.8756126E+00  0.7927987E-04  0.3075454E+01  0.2972886E+02 -0.2693026E+01  0.3443929E-05  0.2075522E+00  0.9990129E+01 -0.2904474E+01  0.1974884E-04  0.1602942E+01
  0.1400000E+02  0.4562012E+02 -0.8809952E+00  0.1491349E-04  0.3746216E-01  0.2704602E+02 -0.2773021E+01  0.1274219E-05 -0.3101357E+01  0.8765996E+01 -0.2719112E+01  0.5412450E-05 -0.2730245E+01
  0.1410000E+02  0.5605027E+02 -0.8910813E+00  0.7800772E-05 -0.2221538E+01  0.2447846E+02 -0.2863352E+01  0.2230654E-05  0.3379071E-01  0.7943385E+01 -0.2505520E+01  0.2013882E-04  0.5492237E-01
  0.1420000E+02  0.6521950E+02 -0.9071360E+00  0.9501976E-05 -0.2683556E+01  0.2205871E+02 -0.2967147E+01  0.4905751E-06 -0.1695916E+01  0.7581787E+01 -0.2278382E+01  0.1942534E-04 -0.5858646E+00
  0.1430000E+02  0.7306584E+02 -0.9265195E+00  0.3248177E-05 -0.4568676E+00  0.1983009E+02 -0.3088421E+01  0.8312372E-06  0.3517457E+00  0.7614598E+01 -0.2067288E+01  0.1669220E-04 -0.1470732E+01
  0.1440000E+02  0.7980151E+02 -0.9495877E+00  0.2517810E-04 -0.2930911E+01  0.1786934E+02  0.3051145E+01  0.3366267E-05 -0.1362569E+01  0.7965182E+01 -0.1887823E+01  0.1600410E-04  0.1682667E+01
  0.1450000E+02  0.8553027E+02 -0.9780052E+00  0.1237650E-04  0.2452987E+01  0.1628275E+02  0.2881586E+01  0.3614723E-05 -0.2895807E+01  0.8528604E+01 -0.1749958E+01  0.1582472E-04  0.1648433E+01
  0.1460000E+02  0.9022344E+02 -0.1008819E+01  0.3199685E-04  0.2229086E+01  0.1520715E+02  0.2686968E+01  0.3842574E-05 -0.2221695E+01  0.9179167E+01 -0.1648875E+01  0.1251130E-04 -0.1354843E+01
  0.1470000E+02  0.9404945E+02 -0.1043923E+01  0.2243103E-04  0.3131897E+01  0.1478455E+02  0.2477068E+01  0.4647639E-05 -0.1267664E+00  0.9866543E+01 -0.1580194E+01  0.5251938E-05 -0.2438712E+01
  0.1480000E+02  0.9709927E+02 -0.1082838E+01  0.2564151E-04 -0.3919944E+00  0.1508205E+02  0.2272506E+01  0.1757711E-05  0.2987305E+01  0.1054512E+02 -0.1536742E+01  0.8310671E-05  0.1603735E+01
  0.1490000E+02  0.9947117E+02 -0.1125237E+01  0.9041170E-05 -0.2647974E+01  0.1605625E+02  0.2096095E+01  0.2785326E-05  0.2842134E+01  0.1118744E+02 -0.1512885E+01  0.9193137E-05  0.7889458E+00
  0.1500000E+02  0.1012499E+03 -0.1171258E+01  0.1847268E-04 -0.3080590E+01  0.1750478E+02  0.1965453E+01  0.1107979E-05  0.1747548E+01  0.1178466E+02 -0.1505424E+01  0.1286156E-04 -0.2575342E+01
  0.1510000E+02  0.1023878E+03 -0.1220573E+01  0.9827784E-04 -0.3140879E+01  0.1915027E+02  0.1881879E+01  0.4980622E-05  0.4758110E-01  0.1231087E+02 -0.1510187E+01  0.1772866E-04  0.1626844E+01