VARIABLES="w (rad/s)"
"abs(F   1   1)" "angle(F   1   1)"
"abs(F   1   2)" "angle(F   1   2)"
"abs(F   1   3)" "angle(F   1   3)"
"abs(F   1   4)" "angle(F   1   4)"
"abs(F   1   5)" "angle(F   1   5)"
"abs(F   1   6)" "angle(F   1   6)"
Zone t="FKforce - beta =   0.000",I=   800,F=POINT
  0.1000000E+00  0.5664067E+01 -0.1570872E+01  0.1651049E-03  0.3140945E+01  0.3293658E+03 -0.2366479E-10  0.1321806E-04  0.4538166E-03  0.4825507E+00 -0.1570845E+01  0.1029568E-04 -0.3128783E+01
  0.2000000E+00  0.1133453E+02 -0.1570798E+01  0.3342631E-03 -0.3140331E+01  0.3286153E+03 -0.5246705E-09  0.3361204E-04 -0.3141553E+01  0.9646937E+00 -0.1570812E+01  0.2869554E-05 -0.3299079E+00
  0.3000000E+00  0.1701780E+02 -0.1570799E+01  0.9567739E-03 -0.4551248E-03  0.3273658E+03  0.7188260E-08  0.5405867E-04 -0.3141323E+01  0.1446019E+01 -0.1570800E+01  0.1114913E-04 -0.2982442E+01
  0.4000000E+00  0.2272045E+02 -0.1570800E+01  0.3008846E-03  0.3140131E+01  0.3256172E+03  0.6313011E-08  0.7214345E-05 -0.3141559E+01  0.1926122E+01 -0.1570800E+01  0.8524432E-05 -0.2880149E+01
  0.5000000E+00  0.2844918E+02 -0.1570794E+01  0.4938843E-03 -0.9532265E-03  0.3233704E+03  0.5883062E-08  0.3382056E-04  0.3140621E+01  0.2404583E+01 -0.1570793E+01  0.8785423E-05  0.2527356E+01
  0.6000000E+00  0.3421104E+02 -0.1570789E+01  0.8977652E-03 -0.3895357E-03  0.3206278E+03 -0.1129348E-07  0.1554882E-04 -0.3141418E+01  0.2880997E+01 -0.1570786E+01  0.8933265E-05 -0.2469596E+00
  0.7000000E+00  0.4001307E+02 -0.1570791E+01  0.1065135E-02  0.5540229E-03  0.3173922E+03 -0.6726530E-08  0.8168717E-05  0.8436556E-03  0.3354937E+01 -0.1570803E+01  0.1090692E-04 -0.1218045E+01
  0.8000000E+00  0.4586304E+02 -0.1570799E+01  0.1794228E-03  0.3129643E+01  0.3136635E+03 -0.5975470E-10  0.6972531E-04 -0.1006410E-03  0.3825981E+01 -0.1570792E+01  0.1339649E-04 -0.2748998E+01
  0.9000000E+00  0.5176895E+02 -0.1570796E+01  0.1699941E-03 -0.4428059E-02  0.3094473E+03 -0.1266858E-07  0.3270307E-04  0.2204555E-03  0.4293703E+01 -0.1570786E+01  0.5876818E-05  0.9978153E+00
  0.1000000E+01  0.5773915E+02 -0.1570792E+01  0.1109242E-02  0.3072945E-03  0.3047463E+03 -0.6450718E-08  0.5743851E-04 -0.8059006E-04  0.4757639E+01 -0.1570788E+01  0.1486958E-04 -0.1394963E+00
  0.1100000E+01  0.6378271E+02 -0.1570794E+01  0.1517537E-02  0.1766249E-02  0.2995638E+03  0.1356911E-07  0.3679639E-04 -0.3011966E-02  0.5217349E+01 -0.1570788E+01  0.3184387E-04 -0.1408231E+01
  0.1200000E+01  0.6990915E+02 -0.1570804E+01  0.8716744E-03  0.3135509E+01  0.2939050E+03  0.1115483E-07  0.3573520E-04  0.3141445E+01  0.5672380E+01 -0.1570795E+01  0.2007579E-04  0.7664907E+00
  0.1300000E+01  0.7612855E+02 -0.1570802E+01  0.6074797E-04  0.3093431E+01  0.2877765E+03  0.6084260E-07  0.7333997E-04  0.1214235E-02  0.6122224E+01 -0.1570796E+01  0.2398258E-04  0.2684634E+01
  0.1400000E+01  0.8245174E+02 -0.1570793E+01  0.3483376E-03  0.6819790E-02  0.2811838E+03 -0.4396360E-09  0.2616306E-04  0.3138978E+01  0.6566350E+01 -0.1570792E+01  0.2893062E-04 -0.1943932E+01
  0.1500000E+01  0.8889019E+02 -0.1570798E+01  0.7966252E-04 -0.2777226E-01  0.2741349E+03  0.4391232E-07  0.1482230E-04 -0.3140115E+01  0.7004224E+01 -0.1570797E+01  0.1260664E-04 -0.6121865E+00
  0.1600000E+01  0.9545631E+02 -0.1570794E+01  0.1919418E-04 -0.3129171E+01  0.2666374E+03 -0.4044275E-08  0.1430374E-04  0.3137211E+01  0.7435277E+01 -0.1570796E+01  0.1347594E-04 -0.6840813E+00
  0.1700000E+01  0.1021622E+03 -0.1570795E+01  0.8546165E-03  0.3138122E+01  0.2587022E+03  0.1412722E-07  0.8648035E-04  0.3138666E+01  0.7858821E+01 -0.1570794E+01  0.6879397E-05 -0.4409924E+00
  0.1800000E+01  0.1090210E+03 -0.1570797E+01  0.4571694E-03 -0.2815345E-02  0.2503418E+03  0.2923859E-07  0.1128191E-03  0.3140628E+01  0.8274178E+01 -0.1570799E+01  0.9629031E-05 -0.2235203E+01
  0.1900000E+01  0.1160471E+03 -0.1570796E+01  0.9540466E-03  0.3136056E+01  0.2415669E+03  0.1689410E-07  0.4601424E-04 -0.3135028E+01  0.8680564E+01 -0.1570794E+01  0.1733418E-04 -0.2594937E+01
  0.2000000E+01  0.1232528E+03 -0.1570797E+01  0.1968623E-02 -0.8574635E-03  0.2323941E+03  0.2579198E-07  0.1012306E-03  0.3140182E+01  0.9077044E+01 -0.1570796E+01  0.3420669E-04 -0.1454660E+01
  0.2100000E+01  0.1306518E+03 -0.1570797E+01  0.1483930E-02  0.3137502E+01  0.2228401E+03 -0.6136095E-07  0.6186707E-04 -0.2256942E-02  0.9462595E+01 -0.1570798E+01  0.1944064E-04  0.1608076E+01
  0.2200000E+01  0.1382573E+03 -0.1570795E+01  0.8816509E-05  0.2910962E+01  0.2129230E+03  0.6801276E-08  0.1079518E-03  0.3399746E-03  0.9836040E+01 -0.1570798E+01  0.9076560E-05  0.2885484E+01
  0.2300000E+01  0.1460788E+03 -0.1570797E+01  0.5074742E-03 -0.3140694E+01  0.2026657E+03  0.5345872E-07  0.6693928E-04  0.1202861E-02  0.1019598E+02 -0.1570794E+01  0.3068705E-04  0.1547759E+01
  0.2400000E+01  0.1541268E+03 -0.1570797E+01  0.1621366E-02 -0.3140810E+01  0.1920908E+03 -0.1794085E-07  0.4202870E-04 -0.2376980E-02  0.1054080E+02 -0.1570792E+01  0.2242416E-04  0.2182299E+01
  0.2500000E+01  0.1624064E+03 -0.1570794E+01  0.2265578E-02 -0.2216107E-02  0.1812251E+03 -0.2730434E-07  0.3074269E-04  0.3135040E+01  0.1086864E+02 -0.1570795E+01  0.5815727E-04 -0.1860219E+01
  0.2600000E+01  0.1709200E+03 -0.1570797E+01  0.2430680E-03 -0.3140091E+01  0.1700969E+03 -0.1035215E-07  0.1512939E-04  0.3127825E+01  0.1117734E+02 -0.1570794E+01  0.1965680E-04 -0.2305820E+01
  0.2700000E+01  0.1796643E+03 -0.1570797E+01  0.2713369E-03  0.1105410E-01  0.1587377E+03 -0.9381746E-07  0.1065941E-04  0.3124219E+01  0.1146437E+02 -0.1570795E+01  0.5243548E-05  0.6547176E+00
  0.2800000E+01  0.1886323E+03 -0.1570797E+01  0.1818670E-04 -0.4845352E+00  0.1471795E+03  0.5049507E-07  0.4853507E-04  0.1554181E-02  0.1172696E+02 -0.1570795E+01  0.1570374E-04 -0.1386922E+01
  0.2900000E+01  0.1978076E+03 -0.1570796E+01  0.1120451E-02  0.3139235E+01  0.1354568E+03 -0.2804953E-06  0.3299864E-04 -0.3141260E+01  0.1196197E+02 -0.1570795E+01  0.1881224E-04  0.1146267E+01
  0.3000000E+01  0.2071691E+03 -0.1570795E+01  0.1828931E-02 -0.3136730E+01  0.1236039E+03 -0.1864597E-06  0.7415216E-05 -0.3134727E+01  0.1216596E+02 -0.1570798E+01  0.9716772E-04 -0.1524889E+01
  0.3100000E+01  0.2166875E+03 -0.1570795E+01  0.3598076E-03 -0.3127851E+01  0.1116571E+03 -0.1952076E-06  0.7468896E-04  0.1424655E-02  0.1233523E+02 -0.1570799E+01  0.5044509E-04 -0.1541788E+01
  0.3200000E+01  0.2263274E+03 -0.1570796E+01  0.8225448E-04 -0.3140358E+01  0.9965187E+02 -0.7867028E-07  0.9359589E-04  0.1477327E-02  0.1246598E+02 -0.1570797E+01  0.3523886E-04  0.1350911E+01
  0.3300000E+01  0.2360477E+03 -0.1570797E+01  0.4334556E-03 -0.7006641E-02  0.8762271E+02 -0.6071691E-09  0.3098294E-04 -0.3662077E-02  0.1255433E+02 -0.1570797E+01  0.2886517E-04  0.1850417E+01
  0.3400000E+01  0.2458022E+03 -0.1570796E+01  0.1457045E-02 -0.3131872E+01  0.7560397E+02 -0.6404893E-07  0.1003157E-04  0.4980457E-01  0.1259640E+02 -0.1570797E+01  0.1940149E-03 -0.1601912E+01
  0.3500000E+01  0.2555416E+03 -0.1570797E+01  0.3143569E-03 -0.3540348E-02  0.6362864E+02  0.7120734E-07  0.1373087E-04 -0.3074819E+01  0.1258843E+02 -0.1570798E+01  0.9000031E-04 -0.1557478E+01
  0.3600000E+01  0.2652143E+03 -0.1570796E+01  0.2219879E-03 -0.3128104E+01  0.5172796E+02  0.3194503E-06  0.8189374E-05  0.3037930E+01  0.1252690E+02 -0.1570796E+01  0.1391884E-03  0.1531295E+01
  0.3700000E+01  0.2747661E+03 -0.1570796E+01  0.1700412E-02 -0.3506957E-02  0.3993407E+02  0.1176453E-06  0.3116579E-06 -0.1422992E+00  0.1240872E+02 -0.1570795E+01  0.9557462E-05  0.1272703E+01
  0.3800000E+01  0.2841456E+03 -0.1570796E+01  0.6925195E-03  0.9721946E-02  0.2827573E+02 -0.1518877E-06  0.9982142E-04  0.3141591E+01  0.1223097E+02 -0.1570796E+01  0.1006789E-03  0.1513088E+01
  0.3900000E+01  0.2933007E+03 -0.1570797E+01  0.8420739E-05  0.2377468E+01  0.1678217E+02 -0.9642253E-06  0.4707323E-04  0.3135269E+01  0.1199142E+02 -0.1570796E+01  0.6423068E-04 -0.1484605E+01
  0.4000000E+01  0.3021813E+03 -0.1570796E+01  0.6140044E-03 -0.3109558E+01  0.5481302E+01 -0.2028480E-05  0.4048751E-04 -0.3125918E+01  0.1168819E+02 -0.1570797E+01  0.2157454E-04 -0.1726133E+01
  0.4100000E+01  0.3107395E+03 -0.1570796E+01  0.7827286E-03  0.9994666E-03  0.5598760E+01 -0.3141593E+01  0.4980883E-04 -0.1158973E-01  0.1131984E+02 -0.1570798E+01  0.4266186E-04 -0.1560558E+01
  0.4200000E+01  0.3189285E+03 -0.1570796E+01  0.2342528E-03  0.3134130E+01  0.1643097E+02  0.3141592E+01  0.1993566E-04  0.1086525E-01  0.1088557E+02 -0.1570796E+01  0.1590809E-04  0.1772379E+01
  0.4300000E+01  0.3267037E+03 -0.1570796E+01  0.1579332E-02 -0.3133882E+01  0.2698801E+02  0.3141592E+01  0.3620877E-04 -0.4706980E-02  0.1038503E+02 -0.1570797E+01  0.5331846E-04 -0.1650093E+01
  0.4400000E+01  0.3340242E+03 -0.1570796E+01  0.1532500E-03  0.3092409E+01  0.3724477E+02 -0.3141593E+01  0.4646563E-04  0.3405565E-02  0.9818343E+01 -0.1570796E+01  0.6875592E-04  0.1715717E+01
  0.4500000E+01  0.3408503E+03 -0.1570796E+01  0.6379503E-03 -0.4108199E-01  0.4717406E+02 -0.3141593E+01  0.1255716E-04 -0.7208443E-01  0.9186101E+01 -0.1570796E+01  0.3737806E-04 -0.1674847E+01
  0.4600000E+01  0.3471444E+03 -0.1570796E+01  0.2344885E-03 -0.3022077E+01  0.5675229E+02 -0.3141593E+01  0.2143169E-04  0.2290414E-01  0.8489432E+01 -0.1570796E+01  0.4157067E-04  0.1429069E+01
  0.4700000E+01  0.3528706E+03 -0.1570796E+01  0.6333420E-04 -0.2154726E+00  0.6595415E+02 -0.3141593E+01  0.1330244E-04  0.3129428E+01  0.7729863E+01 -0.1570796E+01  0.4465266E-04 -0.1654426E+01
  0.4800000E+01  0.3579955E+03 -0.1570796E+01  0.1578821E-03 -0.1476532E+00  0.7475633E+02  0.3141593E+01  0.1915896E-04 -0.2467235E-01  0.6909466E+01 -0.1570796E+01  0.2814820E-04  0.1030109E+01
  0.4900000E+01  0.3624881E+03 -0.1570797E+01  0.1169825E-03 -0.2989553E+01  0.8313676E+02 -0.3141593E+01  0.3489526E-04  0.3125493E+01  0.6030578E+01 -0.1570796E+01  0.1784199E-04 -0.1747678E+01
  0.5000000E+01  0.3663183E+03 -0.1570796E+01  0.2660826E-03 -0.3046603E+01  0.9107394E+02 -0.3141593E+01  0.6964095E-05  0.6205601E-02  0.5096111E+01 -0.1570797E+01  0.3467588E-04 -0.1746913E+01
  0.5100000E+01  0.3694577E+03 -0.1570797E+01  0.2031843E-03  0.2254423E-01  0.9854811E+02 -0.3141593E+01  0.1316332E-04  0.3022846E+01  0.4109314E+01 -0.1570795E+01  0.9862618E-04  0.1535661E+01
  0.5200000E+01  0.3718832E+03 -0.1570796E+01  0.3851447E-03  0.3112924E+01  0.1055414E+03  0.3141593E+01  0.3055087E-04  0.3139399E+01  0.3073623E+01 -0.1570796E+01  0.1646212E-03  0.1542305E+01
  0.5300000E+01  0.3735702E+03 -0.1570796E+01  0.1050778E-03 -0.2158599E+00  0.1120373E+03 -0.3141593E+01  0.4912106E-05 -0.1379453E+00  0.1993135E+01 -0.1570797E+01  0.6781944E-04 -0.1623374E+01
  0.5400000E+01  0.3744974E+03 -0.1570796E+01  0.2149413E-03  0.5825000E-01  0.1180201E+03 -0.3141593E+01  0.5344155E-05  0.3031513E+01  0.8720131E+00 -0.1570796E+01  0.1029508E-03  0.1596622E+01
  0.5500000E+01  0.3746478E+03 -0.1570796E+01  0.2132163E-03  0.3131677E+01  0.1234782E+03  0.3141593E+01  0.4811081E-05 -0.2346466E+00  0.2851222E+00  0.1570807E+01  0.9558465E-05  0.1822035E+01
  0.5600000E+01  0.3740049E+03 -0.1570796E+01  0.6188861E-04  0.3116821E+01  0.1283996E+03 -0.3141593E+01  0.2115178E-05 -0.3787518E+00  0.1473515E+01  0.1570799E+01  0.3767484E-04  0.1681160E+01
  0.5700000E+01  0.3725557E+03 -0.1570796E+01  0.9785296E-03  0.4149662E-03  0.1327770E+03 -0.3141593E+01  0.3434288E-05 -0.3091801E+01  0.2688200E+01  0.1570798E+01  0.3331880E-04  0.1606065E+01
  0.5800000E+01  0.3702889E+03 -0.1570796E+01  0.9769726E-03 -0.3126446E+01  0.1366031E+03  0.3141592E+01  0.6329035E-05 -0.1025565E+00  0.3923896E+01  0.1570801E+01  0.9637892E-04 -0.1560693E+01
  0.5900000E+01  0.3671980E+03 -0.1570796E+01  0.3244821E-04 -0.2534436E+00  0.1398740E+03 -0.3141593E+01  0.8872199E-05  0.3109979E+01  0.5175205E+01  0.1570793E+01  0.7911574E-04  0.1592723E+01
  0.6000000E+01  0.3632784E+03 -0.1570796E+01  0.1164259E-03  0.2841487E+01  0.1425883E+03  0.3141592E+01  0.8299108E-05  0.2975445E+01  0.6436676E+01  0.1570796E+01  0.1824408E-03  0.1572384E+01
  0.6100000E+01  0.3585264E+03 -0.1570796E+01  0.4958510E-03 -0.3798320E-01  0.1447461E+03 -0.3141593E+01  0.1857641E-04  0.2147966E-01  0.7702718E+01  0.1570795E+01  0.7199893E-04  0.1602396E+01
  0.6200000E+01  0.3529460E+03 -0.1570796E+01  0.2829375E-03 -0.2832488E-01  0.1463519E+03 -0.3141593E+01  0.1746086E-04 -0.3079510E+01  0.8967723E+01  0.1570796E+01  0.1756764E-03  0.1571263E+01
  0.6300000E+01  0.3465400E+03 -0.1570796E+01  0.6346403E-03 -0.3106657E+01  0.1474102E+03 -0.3141593E+01  0.4358775E-05  0.3066317E+01  0.1022604E+02  0.1570796E+01  0.1300955E-03 -0.1582863E+01
  0.6400000E+01  0.3393177E+03 -0.1570796E+01  0.7797701E-04  0.9768635E-01  0.1479297E+03 -0.3141593E+01  0.1965783E-04  0.1270493E-02  0.1147208E+02  0.1570798E+01  0.1061663E-03 -0.1533914E+01
  0.6500000E+01  0.3312880E+03 -0.1570796E+01  0.3509852E-03  0.3106847E+01  0.1479214E+03  0.3141593E+01  0.4669127E-06  0.5371329E+00  0.1270053E+02  0.1570796E+01  0.7748244E-05 -0.1916925E+01
  0.6600000E+01  0.3224661E+03 -0.1570796E+01  0.1888307E-03 -0.3065971E+01  0.1473981E+03  0.3141592E+01  0.1526412E-04 -0.3048118E+01  0.1390591E+02  0.1570797E+01  0.4928090E-04 -0.1519758E+01
  0.6700000E+01  0.3128699E+03 -0.1570796E+01  0.1386025E-03 -0.2765608E+00  0.1463758E+03  0.3141593E+01  0.1226205E-04  0.3109548E+01  0.1508311E+02  0.1570795E+01  0.1099164E-03 -0.1564357E+01
  0.6800000E+01  0.3025193E+03 -0.1570796E+01  0.8860580E-04  0.1008860E+00  0.1448718E+03 -0.3141593E+01  0.1097298E-05  0.2916739E+01  0.1622706E+02  0.1570797E+01  0.1960939E-04 -0.1553532E+01
  0.6900000E+01  0.2914382E+03 -0.1570796E+01  0.1403761E-03 -0.1308066E+00  0.1429064E+03 -0.3141593E+01  0.3992804E-05 -0.4139026E+00  0.1733322E+02  0.1570796E+01  0.3140566E-04 -0.1556962E+01
  0.7000000E+01  0.2796532E+03 -0.1570796E+01  0.2124567E-03 -0.3072795E+01  0.1405027E+03 -0.3141593E+01  0.3451591E-05 -0.2995024E+01  0.1839706E+02  0.1570796E+01  0.4820106E-04 -0.1601474E+01
  0.7100000E+01  0.2671938E+03 -0.1570796E+01  0.1130509E-03 -0.1771375E+00  0.1376838E+03 -0.3141593E+01  0.7988818E-05  0.8813673E-01  0.1941457E+02  0.1570796E+01  0.1940196E-04 -0.1581981E+01
  0.7200000E+01  0.2540946E+03 -0.1570796E+01  0.9107684E-04  0.4540218E-02  0.1344773E+03  0.3141593E+01  0.5253687E-05 -0.8754481E-01  0.2038205E+02  0.1570796E+01  0.3674598E-04  0.1568401E+01
  0.7300000E+01  0.2403893E+03 -0.1570796E+01  0.4626439E-04  0.4316289E+00  0.1309105E+03 -0.3141593E+01  0.5017920E-05 -0.1863195E+00  0.2129626E+02  0.1570796E+01  0.9508772E-04  0.1578000E+01
  0.7400000E+01  0.2261171E+03 -0.1570796E+01  0.1859568E-03  0.3091990E+01  0.1270135E+03 -0.3141592E+01  0.3586134E-05 -0.3006112E+01  0.2215424E+02  0.1570796E+01  0.9646988E-04 -0.1578317E+01
  0.7500000E+01  0.2113187E+03 -0.1570796E+01  0.1762639E-03 -0.1215277E-01  0.1228174E+03  0.3141593E+01  0.3157635E-05  0.1063965E+00  0.2295355E+02  0.1570796E+01  0.4427987E-05 -0.1601877E+01
  0.7600000E+01  0.1960374E+03 -0.1570796E+01  0.3714691E-04  0.2667906E-01  0.1183537E+03  0.3141592E+01  0.1390927E-04 -0.3074599E+01  0.2369246E+02  0.1570797E+01  0.3845264E-04 -0.1547186E+01
  0.7700000E+01  0.1803186E+03 -0.1570796E+01  0.1814044E-03  0.3028445E+01  0.1136575E+03 -0.3141593E+01  0.1010653E-05 -0.3461857E+00  0.2436930E+02  0.1570796E+01  0.4894576E-04  0.1591333E+01
  0.7800000E+01  0.1642104E+03 -0.1570796E+01  0.2144599E-03  0.4739596E-01  0.1087620E+03  0.3141592E+01  0.1909298E-05  0.2164635E+01  0.2498330E+02  0.1570796E+01  0.3425864E-05 -0.1558223E+01
  0.7900000E+01  0.1477617E+03 -0.1570796E+01  0.1117973E-04  0.2467164E+01  0.1037023E+03 -0.3141592E+01  0.2820814E-05  0.3950870E+00  0.2553404E+02  0.1570797E+01  0.7523170E-04 -0.1565000E+01
  0.8000000E+01  0.1310233E+03 -0.1570796E+01  0.6101712E-04  0.1513171E+00  0.9851355E+02 -0.3141592E+01  0.1238635E-05  0.3765221E+00  0.2602156E+02  0.1570796E+01  0.2733642E-05  0.1657611E+01
  0.8100000E+01  0.1140479E+03 -0.1570796E+01  0.4217822E-04 -0.2684541E+01  0.9323161E+02 -0.3141593E+01  0.1799657E-05  0.1013687E+01  0.2644655E+02  0.1570797E+01  0.1147764E-03  0.1567380E+01
  0.8200000E+01  0.9688934E+02 -0.1570795E+01  0.1332521E-04 -0.2067332E+01  0.8789139E+02  0.3141592E+01  0.4529694E-06 -0.1202600E+00  0.2681023E+02  0.1570796E+01  0.6085495E-04 -0.1575112E+01
  0.8300001E+01  0.7960138E+02 -0.1570796E+01  0.4396497E-04  0.7565411E-01  0.8252805E+02  0.3141593E+01  0.1343327E-05  0.1722719E+01  0.2711409E+02  0.1570797E+01  0.1164560E-03 -0.1571538E+01
  0.8400001E+01  0.6224001E+02 -0.1570795E+01  0.2653088E-04  0.2797350E+01  0.7717619E+02 -0.3141592E+01  0.3480873E-06  0.2341280E+01  0.2736036E+02  0.1570796E+01  0.4028597E-04 -0.1567860E+01
  0.8500001E+01  0.4486026E+02 -0.1570794E+01  0.1761971E-04  0.2860403E+01  0.7186902E+02  0.3141592E+01  0.1321523E-05 -0.1067967E+01  0.2755149E+02  0.1570796E+01  0.2996153E-04  0.1602118E+01
  0.8600000E+01  0.2751811E+02 -0.1570794E+01  0.1185031E-04 -0.1197529E+01  0.6663971E+02 -0.3141592E+01  0.3596822E-05  0.4174533E-01  0.2769072E+02  0.1570797E+01  0.6212704E-04 -0.1586815E+01
  0.8700000E+01  0.1026892E+02 -0.1570790E+01  0.2053034E-04  0.2821994E+01  0.6151910E+02  0.3141592E+01  0.1765174E-05 -0.2042408E+01  0.2778122E+02  0.1570797E+01  0.2254980E-06 -0.5578487E-01
  0.8800001E+01  0.6831406E+01  0.1570808E+01  0.4780333E-04  0.3137462E+01  0.5653715E+02 -0.3141592E+01  0.3709143E-05 -0.1050214E+00  0.2782686E+02  0.1570797E+01  0.6823359E-04  0.1594295E+01
  0.8900001E+01  0.2372880E+02  0.1570793E+01  0.2070565E-04  0.8926719E-01  0.5172198E+02  0.3141592E+01  0.8644892E-06  0.3006425E+01  0.2783166E+02  0.1570796E+01  0.2544875E-04 -0.1478085E+01
  0.9000001E+01  0.4036909E+02  0.1570800E+01  0.1491024E-03  0.3052040E+01  0.4709946E+02  0.3141592E+01  0.9223094E-06  0.2860787E-01  0.2780001E+02  0.1570796E+01  0.1403256E-03  0.1584371E+01
  0.9100000E+01  0.5669926E+02  0.1570797E+01  0.2186420E-04  0.2898102E+01  0.4269375E+02  0.3141592E+01  0.6713700E-05  0.3260787E-01  0.2773636E+02  0.1570796E+01  0.5297960E-04  0.1605816E+01
  0.9200000E+01  0.7266823E+02  0.1570797E+01  0.4362921E-04 -0.2953014E+01  0.3852677E+02  0.3141593E+01  0.1158617E-04 -0.6609524E-02  0.2764539E+02  0.1570796E+01  0.3771555E-05 -0.1909614E+01
  0.9300001E+01  0.8822629E+02  0.1570796E+01  0.3240412E-04 -0.2356969E-01  0.3461758E+02 -0.3141590E+01  0.7284420E-05  0.3097080E+01  0.2753193E+02  0.1570796E+01  0.8257747E-04 -0.1572485E+01
  0.9400001E+01  0.1033245E+03  0.1570797E+01  0.5244809E-04  0.2856844E+01  0.3098290E+02  0.3141593E+01  0.1492935E-04 -0.3045720E+01  0.2740076E+02  0.1570796E+01  0.4864507E-05 -0.1042075E+01
  0.9500001E+01  0.1179175E+03  0.1570796E+01  0.4256855E-04  0.4388714E+00  0.2763694E+02 -0.3141592E+01  0.9335002E-05  0.3139489E+01  0.2725659E+02  0.1570796E+01  0.1201043E-04 -0.1582515E+01
  0.9600000E+01  0.1319600E+03  0.1570797E+01  0.5917619E-04 -0.2715398E+01  0.2459144E+02  0.3141593E+01  0.4567527E-05  0.1008704E+00  0.2710423E+02  0.1570796E+01  0.3428627E-04 -0.1546062E+01
  0.9700001E+01  0.1454113E+03  0.1570796E+01  0.6134781E-04  0.2348163E+00  0.2185429E+02 -0.3141591E+01  0.5872946E-05  0.4337102E-01  0.2694823E+02  0.1570796E+01  0.3351460E-04 -0.1501168E+01
  0.9800001E+01  0.1582315E+03  0.1570796E+01  0.1126796E-03 -0.3081170E+01  0.1943144E+02 -0.3141593E+01  0.1771420E-04 -0.8952217E-01  0.2679278E+02  0.1570796E+01  0.1679648E-04 -0.1523066E+01
  0.9900001E+01  0.1703839E+03  0.1570796E+01  0.2828487E-04 -0.9278835E-01  0.1732555E+02  0.3141590E+01  0.1290577E-05 -0.1221921E-01  0.2664199E+02  0.1570796E+01  0.2124434E-04  0.1600227E+01
  0.1000000E+02  0.1818349E+03  0.1570796E+01  0.4925061E-04 -0.3071342E+01  0.1553670E+02  0.3141593E+01  0.6259328E-05 -0.1390669E-01  0.2649950E+02  0.1570796E+01  0.4587827E-04 -0.1540014E+01
  0.1010000E+02  0.1925530E+03  0.1570796E+01  0.2059512E-03  0.3120238E+01  0.1406186E+02  0.3141592E+01  0.3701238E-04  0.1778609E-02  0.2636868E+02  0.1570796E+01  0.4131558E-04  0.1540724E+01
  0.1020000E+02  0.2025103E+03  0.1570797E+01  0.8779003E-04  0.3084828E+01  0.1289546E+02  0.3141588E+01  0.2404750E-04  0.2296111E-01  0.2625220E+02  0.1570796E+01  0.2457667E-04 -0.1622232E+01
  0.1030000E+02  0.2116811E+03  0.1570797E+01  0.6981327E-04 -0.3135416E+01  0.1202900E+02  0.3141591E+01  0.4098015E-05 -0.4430779E+00  0.2615252E+02  0.1570796E+01  0.2984584E-04 -0.1496195E+01
  0.1040000E+02  0.2200430E+03  0.1570796E+01  0.6632576E-04  0.7358844E-01  0.1145175E+02  0.3141590E+01  0.1796591E-04  0.3126017E+01  0.2607148E+02  0.1570796E+01  0.1874503E-04  0.1542057E+01
  0.1050000E+02  0.2275779E+03  0.1570796E+01  0.1686218E-03  0.1795023E-02  0.1115037E+02 -0.3141593E+01  0.1914884E-04 -0.3139730E+01  0.2601015E+02  0.1570796E+01  0.9762248E-05 -0.1673580E+01
  0.1060000E+02  0.2342691E+03  0.1570796E+01  0.2597305E-03 -0.5020038E-02  0.1110931E+02  0.3141587E+01  0.1901237E-04  0.3133791E+01  0.2596932E+02  0.1570796E+01  0.3642892E-04 -0.1577610E+01
  0.1070000E+02  0.2401036E+03  0.1570796E+01  0.1567192E-03 -0.2065802E-01  0.1131091E+02  0.3141587E+01  0.1886565E-04  0.3120919E+01  0.2594868E+02  0.1570796E+01  0.1234853E-04 -0.1565913E+01
  0.1080000E+02  0.2450715E+03  0.1570796E+01  0.3547222E-03 -0.4358328E-03  0.1173578E+02  0.3141592E+01  0.3425279E-05  0.7781950E-01  0.2594770E+02  0.1570796E+01  0.8086628E-05 -0.1513267E+01
  0.1090000E+02  0.2491670E+03  0.1570796E+01  0.1811227E-03 -0.1243868E-01  0.1236279E+02  0.3141593E+01  0.6430935E-05  0.3632727E-01  0.2596505E+02  0.1570796E+01  0.5767324E-06  0.1881795E+01
  0.1100000E+02  0.2523845E+03  0.1570796E+01  0.6736244E-05  0.3046051E+01  0.1316946E+02  0.3141589E+01  0.7114937E-05  0.3137340E+01  0.2599865E+02  0.1570796E+01  0.8386582E-05 -0.1562565E+01
  0.1110000E+02  0.2547247E+03  0.1570796E+01  0.1489446E-04  0.3018603E+01  0.1413210E+02 -0.3141589E+01  0.3773332E-04 -0.3136278E+01  0.2604589E+02  0.1570796E+01  0.1077562E-05 -0.5105062E+00
  0.1120000E+02  0.2561895E+03  0.1570796E+01  0.1689812E-03 -0.3136715E+01  0.1522600E+02  0.3141591E+01  0.6875589E-05 -0.3138851E+01  0.2610329E+02  0.1570796E+01  0.1729896E-05 -0.1995430E+01
  0.1130000E+02  0.2567841E+03  0.1570796E+01  0.1608994E-03 -0.1197613E-01  0.1642612E+02  0.3141589E+01  0.1274873E-04  0.3111829E+01  0.2616706E+02  0.1570796E+01  0.5887518E-05  0.1514690E+01
  0.1140000E+02  0.2565155E+03  0.1570796E+01  0.6111065E-04 -0.3135893E+01  0.1770681E+02 -0.3141592E+01  0.1157334E-04 -0.3129736E+01  0.2623269E+02  0.1570796E+01  0.4136522E-05 -0.1769871E+01
  0.1150000E+02  0.2553951E+03  0.1570796E+01  0.1979213E-04  0.1079187E+00  0.1904239E+02  0.3141590E+01  0.1174667E-04  0.3135790E+01  0.2629524E+02  0.1570796E+01  0.4941285E-05  0.1226581E+01
  0.1160000E+02  0.2534356E+03  0.1570796E+01  0.1536629E-03 -0.3130447E+01  0.2040746E+02  0.3141592E+01  0.3808039E-05  0.1335243E-01  0.2634893E+02  0.1570796E+01  0.4007182E-05  0.1425316E+01
  0.1170000E+02  0.2506538E+03  0.1570796E+01  0.8659810E-04 -0.3141431E+01  0.2177688E+02  0.3141592E+01  0.4557289E-05 -0.3137124E+01  0.2638825E+02  0.1570796E+01  0.3422372E-05  0.4577813E+00
  0.1180000E+02  0.2470657E+03  0.1570796E+01  0.2571206E-03 -0.2865104E-02  0.2312643E+02 -0.3141593E+01  0.2703851E-04 -0.1665790E-02  0.2640667E+02  0.1570796E+01  0.2698257E-05  0.1477447E+01
  0.1190000E+02  0.2426942E+03  0.1570796E+01  0.1912565E-03 -0.1076158E-02  0.2443264E+02 -0.3141592E+01  0.2157579E-04  0.5684646E-02  0.2639771E+02  0.1570796E+01  0.7385298E-05 -0.1564270E+01
  0.1200000E+02  0.2375608E+03  0.1570796E+01  0.1677293E-03  0.3124596E+01  0.2567338E+02 -0.3141592E+01  0.1172255E-04  0.3493993E-02  0.2635463E+02  0.1570796E+01  0.3378143E-05  0.1277280E+01
  0.1210000E+02  0.2316913E+03  0.1570796E+01  0.1054641E-03 -0.3124160E+01  0.2682778E+02 -0.3141592E+01  0.8961437E-05 -0.8743483E-02  0.2627075E+02  0.1570796E+01  0.1311043E-05 -0.9037277E+00
  0.1220000E+02  0.2251134E+03  0.1570796E+01  0.5015905E-04 -0.3099393E-01  0.2787678E+02 -0.3141592E+01  0.1063881E-04  0.2409036E-01  0.2613915E+02  0.1570796E+01  0.9700716E-05 -0.1567730E+01
  0.1230000E+02  0.2178551E+03  0.1570796E+01  0.6340488E-04  0.3137862E+01  0.2880303E+02  0.3141593E+01  0.2147678E-04 -0.9924583E-03  0.2595315E+02  0.1570796E+01  0.1961786E-04 -0.1546589E+01
  0.1240000E+02  0.2099489E+03  0.1570796E+01  0.3775772E-04 -0.3098266E+01  0.2959115E+02  0.3141592E+01  0.1970913E-04  0.1612551E-01  0.2570614E+02  0.1570796E+01  0.1160024E-04  0.1463041E+01
  0.1250000E+02  0.2014278E+03  0.1570796E+01  0.2956770E-04 -0.3099530E+01  0.3022768E+02 -0.3141592E+01  0.3041880E-05  0.8718373E-01  0.2539197E+02  0.1570796E+01  0.1624492E-04  0.1567242E+01
  0.1260000E+02  0.1923270E+03  0.1570796E+01  0.1963925E-04  0.3103267E+01  0.3070160E+02 -0.3141593E+01  0.2239943E-05 -0.3036904E+01  0.2500470E+02  0.1570796E+01  0.3080357E-04 -0.1576197E+01
  0.1270000E+02  0.1826829E+03  0.1570797E+01  0.4299738E-04 -0.1873590E-02  0.3100394E+02  0.3141592E+01  0.6630468E-06  0.1253608E+00  0.2453892E+02  0.1570796E+01  0.2287406E-04  0.1550422E+01
  0.1280000E+02  0.1725352E+03  0.1570797E+01  0.7434234E-04 -0.3138116E+01  0.3112836E+02 -0.3141592E+01  0.2183270E-05 -0.1244492E+00  0.2398987E+02  0.1570796E+01  0.5865552E-05 -0.1747749E+01
  0.1290000E+02  0.1619243E+03  0.1570796E+01  0.1440446E-04  0.9830476E-01  0.3107063E+02  0.3141592E+01  0.2089871E-04  0.5681582E-02  0.2335338E+02  0.1570796E+01  0.2404599E-04 -0.1574022E+01
  0.1300000E+02  0.1508915E+03  0.1570796E+01  0.8605339E-04 -0.8219868E-02  0.3082903E+02  0.3141592E+01  0.2006940E-05 -0.1233933E+00  0.2262614E+02  0.1570796E+01  0.2098783E-04  0.1590381E+01
  0.1310000E+02  0.1394812E+03  0.1570796E+01  0.5168886E-04  0.1027111E+00  0.3040396E+02 -0.3141592E+01  0.1186173E-04 -0.8399340E-02  0.2180548E+02  0.1570796E+01  0.2680349E-04  0.1520879E+01
  0.1320000E+02  0.1277380E+03  0.1570797E+01  0.9349598E-05 -0.3094659E+01  0.2979838E+02 -0.3141592E+01  0.8394685E-05  0.2327012E-01  0.2088984E+02  0.1570796E+01  0.7993469E-05  0.1621868E+01
  0.1330000E+02  0.1157085E+03  0.1570796E+01  0.5291302E-05 -0.2956072E+01  0.2901711E+02 -0.3141592E+01  0.8414521E-06 -0.2336877E+01  0.1987844E+02  0.1570797E+01  0.8118765E-05  0.1516855E+01
  0.1340000E+02  0.1034409E+03  0.1570796E+01  0.4705107E-04 -0.5653169E-01  0.2806739E+02 -0.3141592E+01  0.1374323E-05 -0.2919837E+01  0.1877168E+02  0.1570796E+01  0.1329435E-04  0.1544661E+01
  0.1350000E+02  0.9098387E+02  0.1570796E+01  0.2488747E-04 -0.3082451E+01  0.2695810E+02  0.3141593E+01  0.5567808E-05  0.4955229E-01  0.1757099E+02  0.1570796E+01  0.2477282E-04  0.1540810E+01
  0.1360000E+02  0.7838830E+02  0.1570796E+01  0.4010843E-04 -0.4206404E-01  0.2570020E+02 -0.3141592E+01  0.5776067E-05  0.1176594E+00  0.1627868E+02  0.1570796E+01  0.1063418E-04  0.1566281E+01
  0.1370000E+02  0.6570526E+02  0.1570796E+01  0.2017047E-04 -0.2329617E-01  0.2430591E+02 -0.3141592E+01  0.5417159E-06  0.3073380E+01  0.1489850E+02  0.1570796E+01  0.1104056E-05 -0.1672938E+01
  0.1380000E+02  0.5298701E+02  0.1570795E+01  0.1184480E-05  0.2661418E+01  0.2278925E+02 -0.3141592E+01  0.6860848E-06  0.2871465E+01  0.1343501E+02  0.1570798E+01  0.1148415E-04  0.1571744E+01
  0.1390000E+02  0.4028653E+02  0.1570798E+01  0.3790391E-04  0.3039719E+01  0.2116525E+02  0.3141593E+01  0.3760358E-05  0.1580616E+00  0.1189407E+02  0.1570796E+01  0.8587932E-05  0.1567926E+01
  0.1400000E+02  0.2765750E+02  0.1570795E+01  0.5586389E-05  0.2792803E-01  0.1944989E+02  0.3141593E+01  0.1141350E-05  0.2668095E+01  0.1028245E+02  0.1570796E+01  0.2464121E-04 -0.1561262E+01
  0.1410000E+02  0.1515394E+02  0.1570795E+01  0.8624069E-05 -0.3139325E+01  0.1766022E+02 -0.3141593E+01  0.1982214E-05  0.2412273E-01  0.8608053E+01  0.1570795E+01  0.2457097E-05  0.1598718E+01
  0.1420000E+02  0.2830084E+01  0.1570819E+01  0.4326930E-05 -0.3112208E+01  0.1581354E+02 -0.3141592E+01  0.7345919E-06 -0.2061130E+00  0.6879742E+01  0.1570796E+01  0.6638213E-05 -0.1566940E+01
  0.1430000E+02  0.9259899E+01 -0.1570792E+01  0.6212361E-05 -0.5542134E+00  0.1392762E+02  0.3141592E+01  0.7447283E-06  0.2060708E+00  0.5107263E+01  0.1570796E+01  0.2388066E-04 -0.1566634E+01
  0.1440000E+02  0.2106209E+02 -0.1570802E+01  0.2460277E-05  0.2619676E+01  0.1202028E+02  0.3141593E+01  0.5082367E-06 -0.1680888E+01  0.3301170E+01  0.1570797E+01  0.2370686E-04  0.1567491E+01
  0.1450000E+02  0.3252324E+02 -0.1570796E+01  0.9771718E-06  0.3705952E+00  0.1010920E+02 -0.3141593E+01  0.2219883E-05 -0.3014601E+01  0.1472794E+01  0.1570794E+01  0.1243661E-04  0.1572145E+01
  0.1460000E+02  0.4359041E+02 -0.1570794E+01  0.3556300E-05  0.2455287E+01  0.8211797E+01  0.3141591E+01  0.8109461E-06 -0.2613064E+00  0.3658864E+00 -0.1570796E+01  0.7870163E-05 -0.1571996E+01
  0.1470000E+02  0.5421274E+02 -0.1570796E+01  0.2331515E-04  0.1096890E+00  0.6344775E+01 -0.3141590E+01  0.5142965E-06 -0.2956037E+01  0.2202480E+01 -0.1570795E+01  0.1211564E-05 -0.1304826E+01
  0.1480000E+02  0.6434006E+02 -0.1570797E+01  0.4192280E-05  0.3048655E+01  0.4524238E+01 -0.3141591E+01  0.2039297E-05  0.1515116E+00  0.4024077E+01 -0.1570793E+01  0.6799401E-05  0.1552159E+01
  0.1490000E+02  0.7392436E+02 -0.1570796E+01  0.2167026E-04  0.4566819E-01  0.2765201E+01  0.3141593E+01  0.3295896E-05 -0.2933907E+01  0.5817642E+01 -0.1570796E+01  0.8487407E-05  0.1584803E+01
  0.1500000E+02  0.8292017E+02 -0.1570796E+01  0.2281856E-04  0.2746125E-01  0.1081661E+01  0.3141584E+01  0.1598273E-05 -0.3047278E+01  0.7569952E+01 -0.1570796E+01  0.5059588E-05 -0.1641688E+01
  0.1510000E+02  0.9128389E+02 -0.1570797E+01  0.2035582E-04 -0.3102270E+01  0.5136378E+00  0.6939331E-05  0.3115136E-05 -0.7753152E-01  0.9267823E+01 -0.1570797E+01  0.1672319E-04  0.1573282E+01