VARIABLES="w (rad/s)"
"A   1   1" "B   1   1"
"A   1   2" "B   1   2"
"A   1   3" "B   1   3"
"A   1   4" "B   1   4"
"A   1   5" "B   1   5"
"A   1   6" "B   1   6"
Zone t="Motion of body    1 in DoF   1",I=   800,F=POINT
  0.1000000E+00  0.6254679E+01  0.2976200E-05 -0.1067815E-06 -0.6190326E-12 -0.3623829E-05  0.2393488E-07 -0.3149142E-08  0.1064694E-13  0.3457568E+00  0.2340564E-06 -0.1048151E-05 -0.1549769E-11
  0.2000000E+00  0.3879907E+01  0.2198804E-04 -0.3080913E-07 -0.3708145E-12 -0.1970153E-05  0.2207844E-07 -0.1086887E-08 -0.1595126E-14  0.3404640E-01  0.1658503E-05 -0.2175807E-06 -0.3170543E-11
  0.3000000E+00  0.6470583E+01  0.8181305E-04  0.6992195E-07 -0.8971490E-11 -0.4351221E-05  0.2406916E-07 -0.8871588E-10 -0.6343802E-13  0.3598833E+00  0.6475122E-05  0.9649229E-08 -0.1376878E-10
  0.4000000E+00  0.6501003E+01  0.1966090E-03  0.4604544E-07 -0.2524203E-11 -0.4782993E-05  0.1400370E-06  0.3608479E-09 -0.5455845E-13  0.3622155E+00  0.1550207E-04 -0.5287492E-06 -0.4289601E-10
  0.5000000E+00  0.6510787E+01  0.3906848E-03  0.3294554E-07  0.2434586E-10 -0.4407842E-05  0.1992842E-06  0.1049442E-08 -0.4260849E-12  0.3632392E+00  0.3068402E-04 -0.3165162E-06  0.9140209E-11
  0.6000000E+00  0.6524911E+01  0.6899465E-03  0.1093516E-07 -0.8823164E-11 -0.5564376E-05  0.3198726E-06 -0.1155413E-08  0.5368320E-12  0.3638606E+00  0.5388299E-04 -0.4279592E-07  0.9707952E-10
  0.7000000E+00  0.6529678E+01  0.1123659E-02 -0.4010872E-07  0.2844658E-10 -0.5209777E-05  0.4100979E-06  0.1597860E-09  0.7276799E-12  0.3651788E+00  0.8722991E-04 -0.2280160E-06  0.1189140E-09
  0.8000000E+00  0.6541121E+01  0.1727199E-02  0.1191984E-06  0.9130119E-10 -0.5448017E-05  0.2894019E-06  0.2080819E-09 -0.3904807E-11  0.3649494E+00  0.1330909E-03  0.1848016E-06  0.1450763E-09
  0.9000000E+00  0.6553140E+01  0.2543046E-02 -0.9126678E-07 -0.1755112E-09 -0.5612612E-05  0.3004670E-06 -0.5472451E-09  0.2403751E-11  0.3650648E+00  0.1942038E-03  0.4579408E-07  0.1138857E-08
  0.1000000E+01  0.6562621E+01  0.3623612E-02  0.8516508E-07  0.3760192E-10 -0.5241697E-05  0.5415920E-06 -0.2163815E-08  0.2466581E-11  0.3659290E+00  0.2741811E-03 -0.5732835E-06  0.4956271E-09
  0.1100000E+01  0.6568217E+01  0.5024486E-02 -0.4940706E-07 -0.8631673E-10 -0.4650225E-05  0.4537736E-06  0.2102802E-08 -0.3151153E-11  0.3657231E+00  0.3760259E-03  0.2669852E-06 -0.5797096E-09
  0.1200000E+01  0.6581424E+01  0.6833857E-02 -0.4507001E-07  0.4934293E-09 -0.3656392E-05  0.4437255E-06 -0.5423817E-09 -0.1452681E-11  0.3654064E+00  0.5048536E-03  0.2282961E-06 -0.1870984E-08
  0.1300000E+01  0.6599971E+01  0.9144883E-02 -0.1031787E-06  0.3836078E-09 -0.2698458E-05  0.3178752E-06  0.7123683E-09 -0.9011505E-11  0.3656887E+00  0.6669270E-03  0.1443438E-06  0.2312517E-08
  0.1400000E+01  0.6610516E+01  0.1205429E-01 -0.9443934E-07 -0.8069492E-09 -0.2791425E-05  0.2172747E-06 -0.5105194E-09  0.1707908E-11  0.3651748E+00  0.8658728E-03 -0.6968594E-06  0.3320482E-09
  0.1500000E+01  0.6628231E+01  0.1573025E-01 -0.1011892E-06  0.6011760E-09 -0.2392660E-05 -0.1234214E-06 -0.2056986E-08  0.2192907E-11  0.3662876E+00  0.1111513E-02 -0.6792649E-06  0.4574452E-10
  0.1600000E+01  0.6638448E+01  0.2037265E-01 -0.1182707E-06 -0.1490719E-08 -0.1324759E-05  0.8759109E-07  0.8835693E-09  0.4032021E-10  0.3658331E+00  0.1416484E-02 -0.1319917E-06  0.4356013E-08
  0.1700000E+01  0.6654593E+01  0.2616180E-01 -0.8298015E-07  0.5843503E-10  0.1634841E-06 -0.2872921E-06  0.3404312E-08  0.2818051E-11  0.3651894E+00  0.1782222E-02 -0.3776938E-06  0.2895000E-08
  0.1800000E+01  0.6678593E+01  0.3334963E-01  0.1463215E-06  0.9454197E-09  0.1243216E-05 -0.2670016E-06 -0.4521420E-09 -0.4557356E-10  0.3653905E+00  0.2224718E-02 -0.6049196E-06 -0.6449905E-08
  0.1900000E+01  0.6704870E+01  0.4237091E-01 -0.2077477E-07  0.5877610E-09  0.2343943E-05 -0.6221089E-06 -0.1788164E-08 -0.1338910E-10  0.3656264E+00  0.2760354E-02  0.1182297E-06 -0.2672976E-08
  0.2000000E+01  0.6725389E+01  0.5373311E-01  0.1515764E-07  0.2498950E-08  0.2375881E-05 -0.7295833E-06  0.4191802E-10  0.3153432E-10  0.3650001E+00  0.3420472E-02 -0.2962329E-06  0.1284389E-08
  0.2100000E+01  0.6749977E+01  0.6785743E-01 -0.2574996E-07 -0.7869403E-09  0.3412826E-05 -0.1267577E-05  0.4837834E-10  0.5942212E-11  0.3651752E+00  0.4199773E-02 -0.3250447E-06  0.1841864E-08
  0.2200000E+01  0.6773318E+01  0.8517243E-01 -0.9425672E-08 -0.4170033E-09  0.4335314E-05 -0.1363587E-05 -0.6980960E-09 -0.1029702E-09  0.3654447E+00  0.5129216E-02 -0.3014139E-06  0.2005090E-07
  0.2300000E+01  0.6798430E+01  0.1066490E+00 -0.2181206E-07 -0.3115019E-10  0.3298244E-05 -0.9870291E-06  0.1078077E-08 -0.4596298E-10  0.3649667E+00  0.6222675E-02 -0.7411683E-06 -0.1270895E-07
  0.2400000E+01  0.6826213E+01  0.1335594E+00  0.4914606E-07 -0.8822099E-10  0.2425308E-05 -0.8478461E-06  0.2149327E-08  0.1158992E-09  0.3639050E+00  0.7533959E-02  0.3414954E-06 -0.5703404E-07
  0.2500000E+01  0.6865900E+01  0.1671130E+00  0.2275920E-07 -0.8003553E-09 -0.5936823E-06 -0.4756363E-06 -0.5660084E-08  0.1646562E-10  0.3640350E+00  0.9107853E-02 -0.1022614E-06 -0.1759555E-07
  0.2600000E+01  0.6905828E+01  0.2081933E+00  0.1658079E-07  0.1116859E-08 -0.7538132E-06 -0.4584228E-06  0.1999642E-08  0.4369372E-09  0.3638056E+00  0.1090348E-01  0.2102039E-06  0.4829164E-07
  0.2700000E+01  0.6943003E+01  0.2579623E+00  0.7868813E-08  0.6493792E-09 -0.2971696E-05 -0.6297358E-06  0.3105310E-08  0.1577420E-09  0.3631018E+00  0.1294015E-01 -0.4651037E-06 -0.1899718E-07
  0.2800000E+01  0.6980045E+01  0.3189592E+00  0.2203056E-07  0.1724038E-07 -0.1695883E-05 -0.9160540E-06 -0.2615526E-08  0.2263513E-09  0.3624072E+00  0.1526808E-01 -0.9808058E-06 -0.1306850E-07
  0.2900000E+01  0.7023118E+01  0.3937393E+00  0.4728870E-07  0.1029002E-07 -0.3303458E-05 -0.1286577E-05  0.7838609E-09  0.4344320E-09  0.3628720E+00  0.1799586E-01 -0.3311773E-06  0.1709471E-07
  0.3000000E+01  0.7060186E+01  0.4843570E+00 -0.1520675E-07 -0.1985609E-07 -0.3113021E-05 -0.1395580E-05 -0.9479961E-09  0.6582106E-09  0.3616370E+00  0.2100593E-01  0.5931417E-06 -0.2575756E-06
  0.3100000E+01  0.7101642E+01  0.5910145E+00 -0.3929956E-07  0.2022716E-08 -0.4618844E-05 -0.1826688E-05 -0.1488703E-08 -0.1250505E-10  0.3600923E+00  0.2427423E-01 -0.6322039E-06  0.1843728E-06
  0.3200000E+01  0.7148169E+01  0.7162662E+00 -0.1224771E-06  0.1101034E-07 -0.6492015E-05 -0.2653561E-05 -0.1490852E-08 -0.1049474E-09  0.3584310E+00  0.2760616E-01 -0.1757055E-05  0.4219160E-08
  0.3300000E+01  0.7201635E+01  0.8644701E+00 -0.3113228E-08  0.5764377E-08 -0.7289779E-05 -0.4454826E-05 -0.1626880E-08  0.2694123E-08  0.3573310E+00  0.3106161E-01 -0.3790748E-06  0.3255047E-07
  0.3400000E+01  0.7251553E+01  0.1039561E+01  0.1982912E-07  0.2429078E-07 -0.5613550E-05 -0.3636076E-05 -0.2042001E-08  0.6639657E-09  0.3552722E+00  0.3464894E-01 -0.1330124E-06  0.1673034E-06
  0.3500000E+01  0.7298739E+01  0.1245403E+01  0.6029482E-07 -0.3278547E-07 -0.3243913E-05 -0.3097189E-05 -0.2627711E-09  0.9634591E-09  0.3527518E+00  0.3812584E-01  0.5815039E-07 -0.1527739E-06
  0.3600000E+01  0.7342837E+01  0.1479654E+01 -0.6346657E-07 -0.1025874E-06 -0.2205399E-05 -0.2815063E-05 -0.4231344E-08  0.9563443E-09  0.3502753E+00  0.4137799E-01  0.4430435E-06  0.2952515E-07
  0.3700000E+01  0.7393621E+01  0.1743276E+01  0.5546639E-07  0.3946843E-07 -0.7077259E-05 -0.4292655E-05 -0.1804591E-08 -0.2284841E-09  0.3494908E+00  0.4403757E-01  0.1907495E-06  0.2884721E-06
  0.3800000E+01  0.7428662E+01  0.2040283E+01 -0.5366210E-07  0.6053597E-08 -0.1410914E-04 -0.6362766E-05  0.1978008E-08 -0.1331751E-08  0.3463107E+00  0.4588887E-01  0.2598803E-06 -0.2064672E-06
  0.3900000E+01  0.7463822E+01  0.2373516E+01 -0.1305568E-06  0.1241642E-06 -0.1980232E-04 -0.1061605E-04 -0.8555640E-09  0.2863012E-08  0.3426872E+00  0.4673902E-01 -0.5319916E-06  0.4330089E-06
  0.4000000E+01  0.7496242E+01  0.2747542E+01  0.1052249E-06  0.8499046E-07 -0.1260881E-04 -0.7362112E-05  0.1131894E-08  0.2075579E-08  0.3384422E+00  0.4636009E-01 -0.3698373E-06 -0.8481487E-07
  0.4100000E+01  0.7531030E+01  0.3163346E+01  0.4867438E-07 -0.1138469E-06  0.2935745E-05  0.8933107E-06  0.1933765E-08 -0.2191291E-08  0.3347124E+00  0.4399643E-01  0.7306825E-06  0.1229410E-06
  0.4200000E+01  0.7562783E+01  0.3614265E+01  0.8419323E-08 -0.1693406E-06  0.4057104E-05 -0.2081014E-05  0.3188473E-08  0.7916444E-08  0.3310721E+00  0.3968792E-01 -0.7561580E-06 -0.2594106E-07
  0.4300000E+01  0.7587636E+01  0.4104458E+01 -0.1993917E-06 -0.1430162E-06  0.6807604E-06 -0.9353662E-05 -0.2708241E-09  0.1062232E-07  0.3269006E+00  0.3257641E-01 -0.5324694E-06  0.1030586E-05
  0.4400000E+01  0.7603738E+01  0.4635116E+01  0.1413454E-06  0.2167944E-06 -0.4567585E-05 -0.1770303E-04 -0.5599810E-08  0.9993166E-09  0.3220938E+00  0.2249425E-01  0.3036074E-06 -0.2436110E-05
  0.4500000E+01  0.7611382E+01  0.5205014E+01 -0.2662677E-07 -0.7907511E-07 -0.7973171E-05 -0.2584209E-04 -0.3802301E-08  0.2418025E-08  0.3168943E+00  0.8873870E-02 -0.1039682E-06  0.1397427E-05
  0.4600000E+01  0.7618025E+01  0.5816284E+01  0.3460667E-06  0.2099696E-06 -0.7784810E-05 -0.3042341E-04  0.2205428E-08 -0.1175460E-09  0.3127110E+00 -0.8486242E-02 -0.1140300E-05  0.2090798E-05
  0.4700000E+01  0.7615495E+01  0.6464806E+01  0.2588383E-08 -0.7168273E-07 -0.3034226E-05 -0.2621276E-04  0.3211344E-08  0.6700431E-08  0.3085656E+00 -0.3038413E-01 -0.2770383E-06  0.1518873E-05
  0.4800000E+01  0.7598464E+01  0.7143031E+01  0.9632155E-07 -0.1084700E-06  0.5463176E-05 -0.6704011E-05  0.4959562E-08 -0.7282477E-08  0.3036388E+00 -0.5695108E-01 -0.3287502E-06 -0.2150976E-05
  0.4900000E+01  0.7574211E+01  0.7846818E+01  0.1335212E-07  0.3367022E-06  0.7193756E-05  0.7114249E-06  0.3758927E-08 -0.1081044E-08  0.2991514E+00 -0.8862571E-01  0.1002359E-06 -0.4659919E-05
  0.5000000E+01  0.7541369E+01  0.8574153E+01  0.1092558E-07 -0.2619636E-06  0.6393452E-05 -0.2830386E-05 -0.1127829E-08  0.4873155E-08  0.2950256E+00 -0.1259481E+00  0.3746082E-06  0.1509320E-06
  0.5100000E+01  0.7498658E+01  0.9321031E+01  0.5004147E-07  0.3237219E-06  0.7002380E-05  0.7678562E-05  0.2501066E-08  0.5515282E-08  0.2913797E+00 -0.1690577E+00  0.3696631E-06  0.5488498E-06
  0.5200000E+01  0.7446340E+01  0.1008180E+02 -0.6212549E-09 -0.2572779E-06  0.5178377E-05  0.7655664E-05  0.3535299E-08 -0.8220260E-09  0.2884873E+00 -0.2178655E+00 -0.1682667E-06  0.1786520E-05
  0.5300000E+01  0.7385462E+01  0.1084460E+02  0.6420414E-07  0.2446759E-06 -0.1315095E-05 -0.1142935E-04  0.6992713E-08  0.1674323E-07  0.2865177E+00 -0.2733427E+00  0.3532641E-06  0.4666683E-06
  0.5400000E+01  0.7314105E+01  0.1160070E+02 -0.9625822E-08  0.3979076E-06  0.6095875E-06 -0.2594872E-05 -0.5453668E-08 -0.1891985E-07  0.2854573E+00 -0.3353660E+00 -0.6341310E-06 -0.2772420E-05
  0.5500000E+01  0.7227532E+01  0.1234477E+02  0.9180935E-09  0.8128700E-07  0.4547531E-06 -0.1028531E-04  0.1066118E-09 -0.6514629E-08  0.2844420E+00 -0.4026771E+00  0.1125382E-05  0.9013290E-06
  0.5600000E+01  0.7132204E+01  0.1306967E+02 -0.6784311E-07 -0.4656613E-06  0.2612118E-06 -0.2119151E-04 -0.1837480E-08 -0.6608321E-08  0.2844698E+00 -0.4747250E+00 -0.3344294E-06  0.1168234E-05
  0.5700000E+01  0.7028373E+01  0.1376938E+02  0.2652278E-07 -0.2309680E-06  0.2272517E-05 -0.1046826E-04 -0.7282612E-09 -0.7927427E-08  0.2856479E+00 -0.5511540E+00 -0.3920809E-06  0.2858501E-05
  0.5800000E+01  0.6921171E+01  0.1442626E+02 -0.7638500E-08 -0.2433080E-06 -0.1117609E-05 -0.2887728E-04 -0.2903711E-08 -0.4315707E-07  0.2884725E+00 -0.6334188E+00  0.7845316E-06  0.4500994E-05
  0.5900000E+01  0.6808558E+01  0.1503078E+02 -0.2850449E-07  0.2526795E-06 -0.2494923E-05 -0.3050758E-04 -0.1675809E-08  0.2309806E-07  0.2926494E+00 -0.7206143E+00  0.3623242E-06  0.2351681E-05
  0.6000000E+01  0.6690574E+01  0.1557558E+02  0.6558063E-07  0.1454609E-06 -0.1264014E-05 -0.1369788E-04 -0.6871240E-09  0.1123105E-07  0.2979750E+00 -0.8118543E+00 -0.1021586E-06 -0.1389716E-05
  0.6100000E+01  0.6567798E+01  0.1607116E+02  0.8609844E-07  0.1031440E-06 -0.8480689E-06 -0.7341867E-05 -0.2508579E-08  0.1009614E-07  0.3046180E+00 -0.9033315E+00  0.4905108E-06 -0.6861075E-05
  0.6200000E+01  0.6443552E+01  0.1650092E+02  0.2495888E-07  0.2440647E-06 -0.8792018E-07  0.9104628E-05  0.2207575E-08  0.9891146E-08  0.3126435E+00 -0.9955848E+00 -0.1325774E-06  0.6595073E-05
  0.6300000E+01  0.6318741E+01  0.1685087E+02 -0.1170678E-06  0.1217588E-05  0.7878566E-06  0.2186045E-04  0.2410695E-08  0.8547563E-08  0.3221231E+00 -0.1089164E+01  0.5172756E-07  0.2147503E-05
  0.6400000E+01  0.6195440E+01  0.1712094E+02  0.5730556E-07  0.1576263E-06  0.5362667E-06  0.1905728E-04  0.1909654E-08  0.3766868E-07  0.3330737E+00 -0.1181415E+01 -0.5077798E-06 -0.5238604E-05
  0.6500000E+01  0.6076210E+01  0.1731043E+02 -0.2929189E-07  0.8335337E-07 -0.1662099E-05 -0.1048541E-04  0.2451382E-08  0.3805719E-07  0.3456135E+00 -0.1271429E+01  0.1387822E-07 -0.6652751E-05
  0.6600000E+01  0.5961729E+01  0.1741888E+02  0.6588711E-07  0.9218347E-06 -0.3046764E-05 -0.2275260E-04  0.5494521E-10 -0.3589225E-07  0.3594596E+00 -0.1358627E+01 -0.3632977E-06 -0.2084366E-05
  0.6700000E+01  0.5852493E+01  0.1745133E+02  0.6102900E-07  0.1104549E-05 -0.3460543E-05 -0.2675947E-04 -0.1576691E-08  0.5599690E-07  0.3744543E+00 -0.1441868E+01  0.4601337E-06 -0.1483815E-05
  0.6800000E+01  0.5749318E+01  0.1740236E+02 -0.2827352E-07  0.5540787E-06 -0.4014919E-05 -0.3474875E-04  0.7657652E-10  0.4481249E-07  0.3904659E+00 -0.1520328E+01  0.2787312E-06 -0.2230345E-05
  0.6900000E+01  0.5652529E+01  0.1727125E+02 -0.1302502E-07  0.2646120E-06 -0.5600530E-05 -0.1775036E-04 -0.1583428E-09  0.2067857E-08  0.4071836E+00 -0.1593166E+01  0.9228386E-07 -0.9371051E-06
  0.7000000E+01  0.5565648E+01  0.1706546E+02  0.1503005E-07 -0.4325411E-06 -0.5115749E-05 -0.3620253E-04 -0.1384203E-09 -0.7347144E-07  0.4247762E+00 -0.1659317E+01  0.2115592E-06  0.1809126E-06
  0.7100000E+01  0.5490774E+01  0.1678786E+02 -0.4746794E-07 -0.1265435E-06 -0.3734433E-05 -0.2281525E-04 -0.2100112E-09 -0.2154934E-07  0.4434819E+00 -0.1719676E+01 -0.8094118E-07 -0.5724073E-06
  0.7200000E+01  0.5425007E+01  0.1645767E+02  0.9612349E-08 -0.3301539E-06 -0.1621734E-05 -0.3805872E-05  0.1458256E-09  0.1852949E-07  0.4626600E+00 -0.1768917E+01 -0.1187270E-06  0.9926807E-06
  0.7300000E+01  0.5369204E+01  0.1607228E+02 -0.2860946E-07  0.5981419E-06 -0.9179024E-06  0.1442309E-05  0.5018108E-09  0.1325144E-07  0.4819916E+00 -0.1807785E+01  0.1903644E-06 -0.5123665E-05
  0.7400000E+01  0.5326299E+01  0.1563597E+02  0.1449685E-07 -0.6618211E-07 -0.2160308E-05 -0.2074004E-04 -0.4613391E-09 -0.6023377E-08  0.5017573E+00 -0.1836751E+01 -0.4971759E-07 -0.5513199E-05
  0.7500000E+01  0.5297335E+01  0.1515454E+02  0.3455983E-07  0.7194467E-07 -0.1018983E-05 -0.1291855E-04  0.9524413E-09 -0.2769740E-07  0.5221231E+00 -0.1857537E+01 -0.9533942E-07  0.3446804E-05
  0.7600000E+01  0.5282004E+01  0.1463981E+02  0.2501398E-07  0.1539593E-06 -0.1943836E-05 -0.6685914E-05 -0.1057093E-08  0.1751112E-07  0.5428399E+00 -0.1869213E+01  0.3873317E-07 -0.5028930E-05
  0.7700000E+01  0.5278121E+01  0.1411477E+02 -0.3930907E-09 -0.6275950E-06 -0.1842020E-05 -0.1665122E-04 -0.2266990E-08  0.7114153E-08  0.5633332E+00 -0.1867882E+01 -0.2356412E-07 -0.3506708E-05
  0.7800000E+01  0.5287603E+01  0.1358220E+02  0.6335680E-08 -0.1525041E-07 -0.1565128E-06 -0.1908699E-04 -0.3225860E-08  0.1286704E-07  0.5840544E+00 -0.1854918E+01 -0.1930223E-06  0.6359573E-06
  0.7900000E+01  0.5310807E+01  0.1305296E+02  0.3879283E-07  0.4883041E-06 -0.2327291E-05 -0.1796165E-05 -0.2607371E-08 -0.3298862E-07  0.6049834E+00 -0.1830380E+01 -0.3460742E-07 -0.4495852E-05
  0.8000000E+01  0.5347434E+01  0.1253188E+02  0.6378104E-07 -0.2898742E-06 -0.3694242E-05  0.1689356E-04 -0.3278616E-08 -0.1412834E-08  0.6259059E+00 -0.1795147E+01 -0.4848744E-07  0.1118742E-05
  0.8100000E+01  0.5398710E+01  0.1203128E+02 -0.5267434E-08  0.2157176E-06 -0.3884928E-05  0.2154211E-04  0.8125959E-09  0.1222428E-08  0.6469631E+00 -0.1748651E+01  0.7052154E-07  0.2716656E-06
  0.8200000E+01  0.5463016E+01  0.1158062E+02  0.2960073E-07 -0.5190377E-06 -0.1878242E-05 -0.3845107E-05 -0.1441535E-09  0.7475212E-08  0.6679862E+00 -0.1686852E+01 -0.7474704E-07  0.1225624E-06
  0.8300001E+01  0.5540047E+01  0.1117788E+02  0.5456091E-08 -0.4239846E-06 -0.1832631E-05 -0.3120762E-05  0.4557615E-08 -0.1768879E-07  0.6888394E+00 -0.1612468E+01 -0.1608883E-06 -0.2578818E-06
  0.8400001E+01  0.5628245E+01  0.1083341E+02 -0.4712049E-09 -0.1805893E-06  0.3854144E-06  0.7095141E-05  0.3724422E-08  0.1816482E-07  0.7092588E+00 -0.1525778E+01 -0.1003492E-07 -0.6366520E-06
  0.8500001E+01  0.5730447E+01  0.1058975E+02  0.7036963E-07  0.3217719E-06 -0.4474551E-06  0.2003175E-04 -0.2672477E-08  0.1187602E-07  0.7300289E+00 -0.1421914E+01  0.1866508E-07 -0.2671438E-05
  0.8600000E+01  0.5841854E+01  0.1045998E+02  0.2680260E-07 -0.7719791E-07 -0.2204815E-05  0.2155447E-04 -0.8583465E-08  0.3737246E-07  0.7500604E+00 -0.1299651E+01 -0.1375477E-06 -0.3872916E-05
  0.8700000E+01  0.5963119E+01  0.1044882E+02 -0.8450147E-07 -0.2646120E-06 -0.8498820E-06  0.1491129E-04  0.1168353E-09  0.5409584E-09  0.7696059E+00 -0.1161631E+01 -0.7435955E-07 -0.3713794E-05
  0.8800001E+01  0.6095160E+01  0.1058938E+02  0.6442529E-08  0.2328743E-06 -0.3826806E-06  0.2153933E-04 -0.3116724E-08  0.8205255E-08  0.7892137E+00 -0.1004212E+01 -0.2369656E-06 -0.1138557E-05
  0.8900001E+01  0.6235994E+01  0.1089250E+02  0.3784152E-07  0.1474928E-07  0.1486309E-05  0.2195941E-04 -0.1184433E-07 -0.1257037E-07  0.8087301E+00 -0.8270495E+00 -0.2739577E-06  0.8373879E-07
  0.9000001E+01  0.6380602E+01  0.1138681E+02 -0.5551717E-07  0.3890455E-07  0.1950281E-05  0.1471909E-04 -0.1031610E-07  0.1794146E-07  0.8271427E+00 -0.6285161E+00  0.1957647E-07  0.7420825E-06
  0.9100000E+01  0.6527764E+01  0.1211756E+02 -0.1014604E-06  0.2553861E-07  0.1779138E-05  0.1712722E-04  0.2732505E-09 -0.1534347E-07  0.8445947E+00 -0.4018798E+00  0.3748397E-07  0.9976073E-06
  0.9200000E+01  0.6676051E+01  0.1309790E+02 -0.8537545E-07  0.2805609E-07 -0.1476554E-05  0.1978740E-04 -0.8756489E-09 -0.1226413E-07  0.8611801E+00 -0.1476417E+00  0.3072595E-06  0.8165713E-06
  0.9300001E+01  0.6824820E+01  0.1434863E+02  0.2390895E-07 -0.5424954E-07  0.1287013E-05  0.2292327E-04 -0.1415291E-08 -0.5867031E-09  0.8769784E+00  0.1340490E+00  0.3868064E-06 -0.7039712E-06
  0.9400001E+01  0.6964686E+01  0.1588805E+02  0.1114615E-07  0.1059962E-06  0.1142686E-05  0.1476558E-04  0.1337256E-10  0.1682391E-08  0.8905709E+00  0.4443138E+00 -0.4913248E-06  0.1076144E-06
  0.9500001E+01  0.7090503E+01  0.1773559E+02 -0.1534231E-07  0.1862063E-06  0.3866865E-06  0.8600608E-05  0.5064202E-09 -0.1034081E-07  0.9014611E+00  0.7850193E+00  0.2606446E-06  0.4733388E-06
  0.9600000E+01  0.7204009E+01  0.1991530E+02  0.1053074E-06 -0.2577435E-06 -0.5496061E-06 -0.1304441E-04  0.3304305E-08 -0.8543699E-08  0.9106818E+00  0.1158110E+01 -0.3883266E-06  0.7006897E-06
  0.9700001E+01  0.7291420E+01  0.2243976E+02 -0.4459786E-07  0.4406320E-07  0.6056844E-06 -0.1716432E-04  0.6645595E-08 -0.3707733E-07  0.9162083E+00  0.1567906E+01  0.2197576E-06  0.5538654E-06
  0.9800001E+01  0.7344719E+01  0.2526014E+02  0.1501520E-07 -0.4423782E-07  0.4165730E-06 -0.3238340E-05 -0.9548770E-08  0.3355511E-07  0.9171333E+00  0.2003417E+01 -0.1057513E-06 -0.3526889E-05
  0.9900001E+01  0.7363168E+01  0.2836547E+02 -0.9665999E-08 -0.1060544E-06  0.6117368E-06  0.4491667E-06  0.3043454E-08 -0.1405627E-07  0.9139454E+00  0.2464397E+01 -0.3161330E-07 -0.1612115E-05
  0.1000000E+02  0.7337389E+01  0.3167634E+02  0.1315493E-07 -0.2246816E-07 -0.1865548E-05  0.6661139E-05 -0.5487034E-08 -0.6768232E-08  0.9054545E+00  0.2944979E+01  0.7272329E-07 -0.2454417E-05
  0.1010000E+02  0.7263721E+01  0.3513348E+02  0.5025453E-08  0.2452871E-06 -0.1330835E-05  0.1114744E-04 -0.9453485E-08  0.1581962E-07  0.8915865E+00  0.3436702E+01 -0.2334839E-07  0.5281545E-06
  0.1020000E+02  0.7137337E+01  0.3860445E+02 -0.4026601E-07  0.5285256E-07 -0.2658106E-05 -0.1049480E-04 -0.3051241E-08  0.6353199E-07  0.8715920E+00  0.3922199E+01 -0.3956373E-07 -0.4600606E-06
  0.1030000E+02  0.6958447E+01  0.4201302E+02 -0.3855268E-07 -0.3818423E-06 -0.2097819E-05 -0.1525311E-04 -0.1910699E-08  0.8798352E-08  0.8454763E+00  0.4398951E+01 -0.5485357E-08 -0.7168528E-06
  0.1040000E+02  0.6731431E+01  0.4526961E+02  0.9458745E-09  0.1455192E-06 -0.1748136E-06 -0.3517505E-04 -0.9416585E-09  0.7398282E-07  0.8141801E+00  0.4859181E+01 -0.5677031E-07 -0.1045621E-05
  0.1050000E+02  0.6463855E+01  0.4814715E+02  0.8431796E-08  0.7398194E-06 -0.4788886E-06 -0.1518806E-04 -0.3896884E-09 -0.1467352E-07  0.7783056E+00  0.5269912E+01 -0.1334465E-06 -0.2533152E-05
  0.1060000E+02  0.6162210E+01  0.5061346E+02 -0.7560131E-07 -0.5781185E-06 -0.1371738E-06 -0.1260456E-04  0.1100492E-08  0.1956053E-07  0.7386442E+00  0.5632160E+01 -0.2293623E-07  0.3034788E-05
  0.1070000E+02  0.5835075E+01  0.5264036E+02 -0.6227404E-08 -0.1676381E-06 -0.4708328E-06 -0.2595659E-04 -0.3963791E-09  0.2438174E-07  0.6960994E+00  0.5947722E+01  0.2387804E-06 -0.4905214E-06
  0.1080000E+02  0.5496108E+01  0.5414178E+02 -0.2402203E-08  0.5414477E-06  0.1067174E-05 -0.1313961E-04  0.3653177E-09  0.1335987E-07  0.6520118E+00  0.6201701E+01 -0.1676471E-06  0.1431762E-05
  0.1090000E+02  0.5155063E+01  0.5510778E+02  0.2978871E-07  0.1697801E-05  0.1416316E-05 -0.1864874E-04 -0.3426952E-09  0.6967662E-07  0.6076494E+00  0.6393469E+01 -0.1180606E-06  0.3168178E-05
  0.1100000E+02  0.4822200E+01  0.5558817E+02  0.2597914E-07  0.2419110E-06  0.2306710E-05 -0.1008826E-04 -0.1100480E-09  0.3357116E-07  0.5640246E+00  0.6530983E+01 -0.5344601E-06 -0.4179738E-06
  0.1110000E+02  0.4502821E+01  0.5561013E+02 -0.6829698E-07  0.7796334E-06  0.6261463E-06 -0.6761344E-05  0.4781744E-10 -0.1215476E-07  0.5214666E+00  0.6617859E+01  0.6422169E-06  0.2093094E-05
  0.1120000E+02  0.4204049E+01  0.5520063E+02 -0.3002892E-07 -0.8824281E-07  0.8586111E-06 -0.8753181E-05  0.1759611E-08  0.1482234E-07  0.4810835E+00  0.6653180E+01  0.4890809E-06  0.8827801E-06
  0.1130000E+02  0.3926702E+01  0.5445094E+02 -0.4685459E-07  0.6069895E-06  0.1363846E-05 -0.1165779E-04  0.1617400E-09  0.7487145E-08  0.4426165E+00  0.6647007E+01  0.2013291E-06 -0.2359949E-05
  0.1140000E+02  0.3672233E+01  0.5341846E+02  0.2834815E-07  0.8321367E-06  0.1384014E-05  0.3793255E-05 -0.1839541E-08 -0.1111809E-07  0.4060205E+00  0.6608575E+01  0.5276317E-06 -0.3083105E-06
  0.1150000E+02  0.3447758E+01  0.5217687E+02  0.1129735E-07  0.5436596E-07  0.1275898E-05 -0.2097843E-04 -0.1037957E-08  0.3156298E-07  0.3728298E+00  0.6542140E+01 -0.1930992E-06 -0.1174213E-05
  0.1160000E+02  0.3247774E+01  0.5075259E+02  0.1508883E-07 -0.3152527E-06  0.1316289E-05 -0.2067145E-04  0.7050615E-09 -0.7779892E-08  0.3419746E+00  0.6450818E+01 -0.5553745E-06 -0.3243640E-06
  0.1170000E+02  0.3070001E+01  0.4918167E+02 -0.3627283E-07 -0.5390029E-07  0.6107582E-06 -0.1359304E-04 -0.1408485E-08  0.9648746E-08  0.3129723E+00  0.6337663E+01  0.7030518E-07  0.4019921E-06
  0.1180000E+02  0.2914679E+01  0.4750139E+02  0.6107858E-07 -0.1165899E-06  0.9351326E-06 -0.6003633E-05  0.4359959E-09  0.1460274E-07  0.2862335E+00  0.6205117E+01  0.5306493E-06  0.2429169E-07
  0.1190000E+02  0.2780102E+01  0.4573697E+02  0.9763235E-08  0.1303270E-06  0.6009470E-06 -0.1361655E-04  0.3764572E-08  0.1313310E-08  0.2615150E+00  0.6056076E+01  0.6781155E-07  0.5126185E-07
  0.1200000E+02  0.2665408E+01  0.4393724E+02  0.4559600E-08  0.2824236E-06  0.4426123E-06 -0.7717699E-05  0.1484565E-08 -0.3877556E-09  0.2387238E+00  0.5895260E+01  0.2370727E-07 -0.9911091E-06
  0.1210000E+02  0.2569358E+01  0.4208730E+02  0.1808767E-07  0.8166535E-07 -0.8812086E-07  0.3052755E-05  0.6787591E-10  0.4832833E-08  0.2178676E+00  0.5718803E+01 -0.4668159E-06 -0.1981352E-06
  0.1220000E+02  0.2489862E+01  0.4018629E+02  0.8110904E-08 -0.1779408E-06  0.1939669E-06 -0.6024355E-05 -0.3800175E-09 -0.1291116E-07  0.1988445E+00  0.5524880E+01  0.6688388E-06  0.6625655E-06
  0.1230000E+02  0.2425816E+01  0.3825413E+02  0.1358179E-08  0.3238092E-06  0.3613140E-06 -0.6394828E-05 -0.8398918E-09 -0.2180247E-07  0.1814058E+00  0.5313854E+01 -0.9300014E-06  0.4522717E-06
  0.1240000E+02  0.2378371E+01  0.3633871E+02  0.2979387E-07  0.2579472E-06 -0.9074586E-07 -0.1767497E-05  0.8547508E-09  0.4409246E-07  0.1661567E+00  0.5094358E+01  0.1422347E-06 -0.1074654E-06
  0.1250000E+02  0.2346486E+01  0.3443185E+02 -0.4889909E-07  0.3289024E-06 -0.2998702E-06  0.6955057E-05  0.1329527E-08  0.9732932E-08  0.1530843E+00  0.4863211E+01  0.2281732E-06  0.5303150E-06
  0.1260000E+02  0.2329297E+01  0.3252332E+02  0.1612260E-08 -0.9802170E-07 -0.6354255E-06  0.2757473E-05  0.2503169E-10 -0.3573271E-07  0.1420797E+00  0.4615555E+01 -0.4842134E-06 -0.1638652E-05
  0.1270000E+02  0.2327953E+01  0.3063578E+02 -0.4201493E-07  0.1514272E-06 -0.4071179E-06  0.1147927E-04 -0.2269708E-09 -0.3599101E-07  0.1336550E+00  0.4356473E+01 -0.1905674E-07  0.1185752E-05
  0.1280000E+02  0.2341003E+01  0.2879629E+02  0.4435606E-07  0.2221204E-06 -0.4839953E-06  0.8670588E-05 -0.9142996E-09 -0.3053534E-08  0.1277065E+00  0.4090479E+01 -0.2423004E-07  0.1349215E-05
  0.1290000E+02  0.2366576E+01  0.2702228E+02  0.2225879E-07 -0.3539026E-06 -0.3356752E-06  0.5735475E-05 -0.1570171E-08 -0.1991945E-07  0.1242349E+00  0.3818741E+01 -0.1411037E-06 -0.1325080E-05
  0.1300000E+02  0.2406109E+01  0.2535230E+02  0.2185026E-08 -0.2092565E-07 -0.5547453E-06 -0.1243998E-05  0.1783274E-09  0.2110259E-07  0.1236091E+00  0.3551172E+01 -0.4666453E-07 -0.1176953E-05
  0.1310000E+02  0.2457698E+01  0.2379457E+02 -0.2486933E-07  0.2494708E-06 -0.4004926E-06  0.7186165E-05  0.1410480E-09  0.2055778E-07  0.1257989E+00  0.3289629E+01 -0.1177221E-06 -0.8518542E-06
  0.1320000E+02  0.2518760E+01  0.2237559E+02 -0.1114765E-07  0.8582356E-07 -0.6870254E-06  0.3383426E-05  0.2515527E-09 -0.1065436E-07  0.1304253E+00  0.3039823E+01 -0.1098703E-06  0.1438930E-05
  0.1330000E+02  0.2586875E+01  0.2115153E+02  0.9418262E-08 -0.1318422E-06 -0.5330016E-06  0.1610538E-05  0.3217300E-09  0.2424300E-07  0.1372457E+00  0.2817918E+01  0.3699972E-07  0.1576159E-05
  0.1340000E+02  0.2659856E+01  0.2008427E+02 -0.4382950E-08  0.2237061E-06 -0.6209395E-06  0.4172909E-05  0.2560160E-09 -0.1497818E-07  0.1458368E+00  0.2616516E+01 -0.3148696E-06 -0.2609358E-05
  0.1350000E+02  0.2735068E+01  0.1920131E+02  0.4396188E-07 -0.1523149E-06 -0.5458413E-06  0.5113466E-06  0.4045407E-09 -0.3068541E-07  0.1557886E+00  0.2446075E+01  0.3128173E-07  0.7385922E-06
  0.1360000E+02  0.2809741E+01  0.1849512E+02 -0.8504310E-08 -0.5475158E-08 -0.6412767E-07  0.2762465E-06 -0.2638936E-09 -0.1200152E-07  0.1664279E+00  0.2306740E+01  0.1191039E-06  0.2603024E-06
  0.1370000E+02  0.2880586E+01  0.1794220E+02 -0.1856697E-07  0.1093649E-06  0.6050703E-07  0.1422904E-05  0.3739160E-09  0.3788459E-08  0.1771513E+00  0.2198108E+01 -0.6521532E-07  0.7994730E-06
  0.1380000E+02  0.2946633E+01  0.1753308E+02 -0.2491541E-07  0.8415373E-07  0.1326573E-06 -0.3110931E-06 -0.7734409E-09 -0.5684059E-08  0.1875563E+00  0.2118985E+01  0.6483382E-07 -0.1580319E-06
  0.1390000E+02  0.3007244E+01  0.1723893E+02 -0.3304855E-07  0.1034641E-07 -0.3024417E-07 -0.2031315E-06  0.9682641E-09  0.1601015E-07  0.1973985E+00  0.2067163E+01 -0.8920947E-07  0.6558864E-06
  0.1400000E+02  0.3062385E+01  0.1702266E+02  0.7795669E-08  0.7066410E-07 -0.1432337E-06 -0.1593104E-05 -0.4797007E-09 -0.4602476E-09  0.2066511E+00  0.2033799E+01  0.1308077E-06 -0.2377021E-08
  0.1410000E+02  0.3109205E+01  0.1688195E+02 -0.1011823E-07  0.8705683E-07 -0.7820725E-07 -0.1488717E-05  0.5589036E-09  0.1578741E-08  0.2143907E+00  0.2021005E+01 -0.1572707E-06 -0.1788945E-06
  0.1420000E+02  0.3151257E+01  0.1678300E+02 -0.1789681E-07 -0.4474714E-08  0.4689237E-06 -0.1544506E-05 -0.6347194E-09 -0.3364922E-09  0.2214528E+00  0.2020439E+01  0.3177931E-06  0.1506025E-06
  0.1430000E+02  0.3187346E+01  0.1671342E+02 -0.6797678E-09 -0.2355955E-07  0.3282248E-06 -0.7471808E-06  0.6956934E-09  0.6292107E-08  0.2273011E+00  0.2030232E+01 -0.5607203E-07  0.2603565E-07
  0.1440000E+02  0.3218796E+01  0.1666736E+02  0.4806983E-07  0.1702574E-07  0.2327574E-06  0.5773563E-06  0.2283050E-09 -0.1654492E-08  0.2322810E+00  0.2047680E+01  0.3246782E-06 -0.1064041E-07
  0.1450000E+02  0.3246061E+01  0.1662597E+02  0.2461983E-07 -0.2098386E-07  0.3582005E-06  0.9988626E-06  0.8852849E-09 -0.2420071E-08  0.2363895E+00  0.2069039E+01  0.7591792E-07  0.5989193E-07
  0.1460000E+02  0.3269205E+01  0.1658607E+02 -0.2193751E-07  0.4966569E-07  0.2692786E-06 -0.2612624E-06 -0.5704437E-09 -0.9862262E-09  0.2396349E+00  0.2092567E+01 -0.1329236E-06 -0.7506617E-07
  0.1470000E+02  0.3290564E+01  0.1653720E+02  0.2292669E-07 -0.8265488E-08 -0.2166701E-09 -0.1315744E-05 -0.1300759E-09 -0.4229506E-09  0.2423960E+00  0.2116749E+01 -0.2461271E-06 -0.2582210E-06
  0.1480000E+02  0.3309041E+01  0.1647732E+02  0.5013331E-07  0.3779132E-07 -0.2208029E-06 -0.1702706E-05  0.9256644E-09 -0.2831960E-08  0.2444901E+00  0.2139766E+01 -0.1087128E-06  0.1533872E-06
  0.1490000E+02  0.3324877E+01  0.1640062E+02  0.4211852E-07 -0.3421155E-07 -0.5418614E-06 -0.7997251E-06  0.8234216E-09  0.2242681E-08  0.2459958E+00  0.2159928E+01  0.1718554E-07  0.2753825E-07
  0.1500000E+02  0.3340245E+01  0.1631427E+02 -0.1606531E-08  0.1041917E-07 -0.1575588E-06 -0.8347188E-06  0.3108201E-09 -0.1115131E-08  0.2473034E+00  0.2178422E+01 -0.8615698E-07  0.1340410E-06
  0.1510000E+02  0.3353836E+01  0.1621169E+02  0.4458090E-08  0.3272726E-07 -0.6959568E-06 -0.3961668E-06 -0.1540224E-09  0.5716161E-08  0.2481711E+00  0.2193559E+01  0.7888494E-07 -0.3761168E-06