VARIABLES="w (rad/s)"  
"abs(F   1   1)" "angle(F   1   1)"
"abs(F   1   2)" "angle(F   1   2)"
"abs(F   1   3)" "angle(F   1   3)"
"abs(F   1   4)" "angle(F   1   4)"
"abs(F   1   5)" "angle(F   1   5)"
"abs(F   1   6)" "angle(F   1   6)"
"abs(F   2   1)" "angle(F   2   1)"
"abs(F   2   2)" "angle(F   2   2)"
"abs(F   2   3)" "angle(F   2   3)"
"abs(F   2   4)" "angle(F   2   4)"
"abs(F   2   5)" "angle(F   2   5)"
"abs(F   2   6)" "angle(F   2   6)"
Zone t="Diffraction force - beta =   0.000 deg",I=   500,F=POINT
  0.4000000E-01  0.1077004E+06 -0.1570099E+01  0.7797209E-04 -0.1373568E+01  0.1211828E+03 -0.2815899E+01  0.5720121E-03  0.1550947E+01  0.8379111E+05  0.1571483E+01  0.1546265E+00  0.1570379E+01  0.1754113E+05 -0.1570099E+01  0.3650218E-05  0.2151553E+01  0.7776675E-01  0.2766693E+01  0.6912047E-04  0.2305929E+01  0.1161878E+05 -0.1570089E+01  0.1603760E-01 -0.1569894E+01
  0.8000000E-01  0.2147499E+06 -0.1568010E+01  0.8015023E-04  0.1339348E+01  0.3754068E+03 -0.2717004E+01  0.2570307E-02 -0.1437797E+01  0.1677404E+06  0.1573542E+01  0.5648416E+00  0.1571101E+01  0.3502813E+05 -0.1568010E+01  0.3885003E-05  0.1911178E+01  0.2982528E+00  0.2815540E+01  0.2160451E-03 -0.5868273E+00  0.2320048E+05 -0.1567974E+01  0.5960590E-01 -0.1563923E+01
  0.1200000E+00  0.3239159E+06 -0.1564476E+01  0.2676882E-03 -0.1893918E+01  0.7769609E+03 -0.2679856E+01  0.8662976E-02  0.1485649E+01  0.2519199E+06  0.1577025E+01  0.1548184E+01  0.1563058E+01  0.5274797E+05 -0.1564474E+01  0.5588890E-05 -0.1385448E+01  0.6163151E+00  0.2878587E+01  0.4820751E-04 -0.1141963E+00  0.3493851E+05 -0.1564395E+01  0.2357882E-01  0.1589202E+01
  0.1600000E+00  0.4348116E+06 -0.1559441E+01  0.5312818E-03  0.1329833E+01  0.1267500E+04 -0.2637882E+01  0.1606843E-02  0.2075819E+01  0.3361669E+06  0.1581986E+01  0.1565891E+01 -0.1571325E+01  0.7064785E+05 -0.1559438E+01  0.5872156E-05  0.2712815E+01  0.9599274E+00  0.2790658E+01  0.3109310E-03  0.1206512E+01  0.4679781E+05 -0.1559297E+01  0.6097707E-02 -0.1637895E+01
  0.2000000E+00  0.5479222E+06 -0.1552821E+01  0.5577125E-03 -0.1389105E+01  0.1850334E+04 -0.2603060E+01  0.1073203E-02 -0.1252474E+01  0.4202535E+06  0.1588510E+01  0.7393925E-02  0.2360538E+01  0.8875999E+05 -0.1552818E+01  0.1978133E-04 -0.2260596E+01  0.1373554E+01  0.2658826E+01  0.9464975E-03  0.2393394E+01  0.5880040E+05 -0.1552597E+01  0.8287758E-01 -0.1544588E+01
  0.2400000E+00  0.6634603E+06 -0.1544515E+01  0.1799320E-03  0.2427411E+01  0.2509867E+04 -0.2571334E+01  0.8033775E-02 -0.1498340E+01  0.5038234E+06  0.1596697E+01  0.1382289E+00 -0.2289009E+01  0.1070767E+06 -0.1544510E+01  0.3561154E-04  0.8035779E+00  0.1747046E+01  0.2483029E+01  0.7587838E-03  0.2296437E+01  0.7094106E+05 -0.1544191E+01  0.1049966E+00  0.1589598E+01
  0.2800000E+00  0.7816896E+06 -0.1534397E+01  0.2567359E-03 -0.2830609E+01  0.3234928E+04 -0.2541738E+01  0.3067820E-02 -0.3043951E+01  0.5865226E+06  0.1606670E+01  0.7782190E-01 -0.3006712E+01  0.1255936E+06 -0.1534390E+01  0.4277798E-04 -0.1520838E+01  0.2382974E+01  0.2157809E+01  0.1482800E-02 -0.9386768E+00  0.8321688E+05 -0.1533954E+01  0.1061293E+00 -0.1575788E+01
  0.3200000E+00  0.9028082E+06 -0.1522319E+01  0.8363973E-03  0.7848388E+00  0.4015176E+04 -0.2513636E+01  0.1133247E-01 -0.1635715E+01  0.6678879E+06  0.1618575E+01  0.2129366E+01 -0.1560956E+01  0.1442966E+06 -0.1522311E+01  0.1371594E-04  0.2777614E+01  0.3293388E+01  0.1883466E+01  0.1555958E-02 -0.1895586E+01  0.9561865E+05 -0.1521739E+01  0.6488836E-01  0.1518542E+01
  0.3600000E+00  0.1027017E+07 -0.1508107E+01  0.2573101E-03 -0.1281225E+00  0.4842107E+04 -0.2486772E+01  0.9359973E-02 -0.1367962E+01  0.7473017E+06  0.1632583E+01  0.2030004E+00  0.1640493E+01  0.1631621E+06 -0.1508099E+01  0.2269114E-04  0.1823114E+01  0.4708995E+01  0.1655900E+01  0.5031687E-03  0.9043672E+00  0.1081313E+06 -0.1507371E+01  0.8121056E-01 -0.1724342E+01
  0.3999999E+00  0.1154422E+07 -0.1491563E+01  0.1136005E-02 -0.1532631E+01  0.5706224E+04 -0.2460833E+01  0.9222425E-02 -0.1352065E+01  0.8241938E+06  0.1648891E+01  0.1857308E+01 -0.1443547E+01  0.1821458E+06 -0.1491554E+01  0.4390642E-04 -0.2373090E+01  0.7120412E+01  0.1461787E+01  0.2353744E-02  0.1478610E+01  0.1207244E+06 -0.1490649E+01  0.2150297E-01  0.1565607E+01
  0.4400000E+00  0.1285085E+07 -0.1472456E+01  0.6760403E-03 -0.1782353E+01  0.6605954E+04 -0.2436583E+01  0.1433910E-01 -0.3027568E+01  0.8976624E+06  0.1667723E+01  0.2166943E+00  0.8434904E+00  0.2011934E+06 -0.1472448E+01  0.2675056E-05 -0.3141593E+01  0.1044211E+02  0.1341463E+01  0.2562663E-02 -0.2677066E+01  0.1333628E+06 -0.1471345E+01  0.3652554E-01 -0.1154649E+01
  0.4800000E+00  0.1418958E+07 -0.1450528E+01  0.2965908E-02 -0.1468813E+01  0.7523059E+04 -0.2412499E+01  0.1893730E-01 -0.1930608E+01  0.9668648E+06  0.1689332E+01  0.8185371E+00 -0.1440636E+01  0.2202257E+06 -0.1450523E+01  0.2659859E-04  0.5832294E+00  0.1490292E+02  0.1257391E+01  0.2343144E-02  0.1395241E+01  0.1459931E+06 -0.1449199E+01  0.1565554E+00  0.1569077E+01
  0.5200000E+00  0.1555864E+07 -0.1425488E+01  0.8350138E-03 -0.1926519E+01  0.8451850E+04 -0.2388841E+01  0.1509631E-01  0.2498459E+01  0.1030739E+07  0.1714002E+01  0.1144347E+01 -0.1237667E+01  0.2391416E+06 -0.1425486E+01  0.2556226E-04 -0.2825977E+01  0.2071364E+02  0.1192274E+01  0.2895727E-02  0.7679816E-01  0.1585482E+06 -0.1423918E+01  0.7781564E-01  0.1210653E+01
  0.5600000E+00  0.1695306E+07 -0.1397037E+01  0.6988073E-03  0.1694395E+01  0.9379147E+04 -0.2365046E+01  0.1007821E-01  0.4135756E+00  0.1087774E+07  0.1742024E+01  0.7975370E+00  0.2769044E+01  0.2577855E+06 -0.1397041E+01  0.2146885E-03  0.1670465E+01  0.2796347E+02  0.1163589E+01  0.9889340E-03 -0.2402034E+01  0.1709243E+06 -0.1395203E+01  0.5567966E-02 -0.2592652E+01
  0.6000000E+00  0.1836713E+07 -0.1364830E+01  0.3363674E-03  0.2204276E+01  0.1030144E+05 -0.2341622E+01  0.1701004E-01 -0.1938134E+01  0.1136628E+07  0.1773733E+01  0.3327517E+01  0.1553454E+01  0.2759802E+06 -0.1364842E+01  0.1790297E-03  0.1809574E+01  0.3701197E+02  0.1136449E+01  0.1325493E-02 -0.1467004E+01  0.1830036E+06 -0.1362709E+01  0.4794272E-01  0.4214042E+00
  0.6400000E+00  0.1979032E+07 -0.1328529E+01  0.9671184E-03 -0.2461857E+01  0.1122251E+05 -0.2319755E+01  0.1826916E-01 -0.1181803E+01  0.1175398E+07  0.1809450E+01  0.1508010E+01 -0.2672548E+01  0.2934862E+06 -0.1328551E+01  0.1504191E-03  0.1341564E+01  0.4804764E+02  0.1110527E+01  0.1546829E-02 -0.2292832E+00  0.1946268E+06 -0.1326095E+01  0.1367301E+00 -0.8461343E+00
  0.6800000E+00  0.2120967E+07 -0.1287780E+01  0.1688947E-02 -0.2262257E+01  0.1209799E+05 -0.2295736E+01  0.1045734E-01 -0.2421666E+01  0.1202231E+07  0.1849508E+01  0.1109253E+01 -0.1458120E+01  0.3100341E+06 -0.1287818E+01  0.6960418E-04 -0.1107149E+01  0.6079465E+02  0.1109421E+01  0.1952980E-02 -0.1026277E+01  0.2056143E+06 -0.1285010E+01  0.1230123E+00 -0.2333155E+01
  0.7200000E+00  0.2260295E+07 -0.1242301E+01  0.3990906E-02  0.1699403E+01  0.1294673E+05 -0.2272342E+01  0.5004841E-01 -0.1806085E+01  0.1214724E+07  0.1894173E+01  0.7556332E+00  0.1582597E+01  0.3252024E+06 -0.1242359E+01  0.2705069E-04 -0.2723368E+01  0.7598045E+02  0.1109284E+01  0.7213060E-03 -0.1429438E+01  0.2156858E+06 -0.1239167E+01  0.2095166E+00 -0.1615041E+01
  0.7599999E+00  0.2395213E+07 -0.1191724E+01  0.2705624E-02 -0.1639144E+01  0.1374997E+05 -0.2248573E+01  0.2136244E-01 -0.3936115E+00  0.1210500E+07  0.1943779E+01  0.1433423E+01  0.2056129E+01  0.3386196E+06 -0.1191802E+01  0.2667866E-03 -0.1549061E+01  0.9388268E+02  0.1103835E+01  0.2728647E-02  0.2057254E+01  0.2245931E+06 -0.1188191E+01  0.2091431E+00  0.1244474E+01
  0.8000000E+00  0.2519661E+07 -0.1136339E+01  0.1805238E-02  0.9082730E+00  0.1452284E+05 -0.2226674E+01  0.4029869E-01 -0.2286150E+01  0.1187203E+07  0.1997953E+01  0.5916125E+01  0.9308110E+00  0.3495473E+06 -0.1136453E+01  0.1091830E-03  0.2034444E+01  0.1138145E+03  0.1112052E+01  0.2683667E-02 -0.2865167E+01  0.2318461E+06 -0.1132388E+01  0.2490054E+00  0.2162201E+01
  0.8400000E+00  0.2632302E+07 -0.1075808E+01  0.3145053E-02  0.3553636E+00  0.1522255E+05 -0.2203351E+01  0.4361627E-01  0.1723230E+00  0.1142631E+07  0.2056999E+01  0.1496895E+01 -0.1189315E+01  0.3576382E+06 -0.1075961E+01  0.7927114E-04  0.1325818E+01  0.1362666E+03  0.1121387E+01  0.1414594E-02 -0.2814111E+01  0.2372135E+06 -0.1071403E+01  0.2582818E+00  0.2025544E+01
  0.8800000E+00  0.2727706E+07 -0.1010569E+01  0.2243711E-02  0.1460244E+01  0.1584822E+05 -0.2179312E+01  0.2746147E-01 -0.9605511E+00  0.1075359E+07  0.2120357E+01  0.3361942E+01 -0.1959763E+01  0.3622372E+06 -0.1010770E+01  0.1746896E-03 -0.1609239E+01  0.1625221E+03  0.1126397E+01  0.8978778E-03 -0.8224183E+00  0.2402573E+06 -0.1005677E+01  0.5182224E-01  0.1382876E+00
  0.9200000E+00  0.2801178E+07 -0.9412187E+00  0.2481000E-02  0.1369803E+01  0.1639975E+05 -0.2155404E+01  0.8497278E-01  0.8666767E+00  0.9843708E+06  0.2187235E+01  0.5866395E+01 -0.1574469E+01  0.3628292E+06 -0.9414771E+00  0.9826660E-04  0.1570796E+01  0.1912752E+03  0.1133489E+01  0.2122550E-02  0.4044576E+00  0.2406374E+06 -0.9358042E+00  0.1668977E+00  0.7492585E+00
  0.9600000E+00  0.2848630E+07 -0.8686565E+00  0.1245267E-02  0.1832872E+01  0.1687015E+05 -0.2131831E+01  0.8345673E-01  0.2464508E+01  0.8702737E+06  0.2256411E+01  0.7044254E+01  0.2107205E+01  0.3590619E+06 -0.8689804E+00  0.7324219E-05 -0.3141593E+01  0.2217621E+03  0.1150429E+01  0.4197870E-03  0.1675673E+01  0.2381189E+06 -0.8626788E+00  0.2101251E+00 -0.2195843E+01
  0.1000000E+01  0.2866915E+07 -0.7940751E+00  0.2242866E-02 -0.1857620E+01  0.1726472E+05 -0.2110417E+01  0.2804841E-01 -0.1324036E+01  0.7352942E+06  0.2326123E+01  0.1056294E+01 -0.1933597E+00  0.3507798E+06 -0.7944794E+00  0.1533489E-03 -0.1471128E+01  0.2550361E+03  0.1168384E+01  0.1192628E-02 -0.1506781E+01  0.2325990E+06 -0.7874976E+00  0.1242757E+00 -0.1625154E+01
  0.1040000E+01  0.2854718E+07 -0.7188543E+00  0.3470713E-02 -0.1869972E+01  0.1751988E+05 -0.2084336E+01  0.8179393E-01  0.2098738E+01  0.5831809E+06  0.2393727E+01  0.7079509E+01 -0.7002237E+00  0.3381343E+06 -0.7193537E+00  0.1586914E-04  0.1570796E+01  0.2932044E+03  0.1179689E+01  0.2909943E-02  0.1119343E+01  0.2241753E+06 -0.7116377E+00  0.5258426E+00  0.2919870E+01
  0.1080000E+01  0.2812732E+07 -0.6444790E+00  0.5054050E-03  0.1567076E+01  0.1766723E+05 -0.2057993E+01  0.1790948E-01  0.2076018E+01  0.4184152E+06  0.2454234E+01  0.4837997E+01 -0.2386984E+01  0.3215918E+06 -0.6450852E+00  0.1071167E-03 -0.1570796E+01  0.3324870E+03  0.1193658E+01  0.2715531E-02  0.1056919E+01  0.2131630E+06 -0.6365745E+00  0.3913181E+00  0.1834564E+01
  0.1120000E+01  0.2743578E+07 -0.5724272E+00  0.6364533E-03 -0.2264127E+01  0.1771139E+05 -0.2033040E+01  0.4513657E-01  0.2364494E+01  0.2467911E+06  0.2493095E+01  0.3079390E+01  0.2802032E+01  0.3018645E+06 -0.5731426E+00  0.4272461E-04 -0.9272952E+00  0.3717827E+03  0.1215016E+01  0.3215457E-02 -0.1075055E+01  0.2000338E+06 -0.5637726E+00  0.4101753E-01  0.1096341E+01
  0.1160000E+01  0.2651385E+07 -0.5040413E+00  0.1450522E-02 -0.1184566E+01  0.1761566E+05 -0.2004543E+01  0.2731191E-01 -0.1517954E+01  0.7550548E+05  0.2379268E+01  0.1434085E+01  0.7773939E+00  0.2798033E+06 -0.5048890E+00  0.6257964E-04  0.1428899E+01  0.4123582E+03  0.1239210E+01  0.1884655E-02  0.4363435E+00  0.1853550E+06 -0.4945930E+00  0.5673707E-01 -0.1251068E+01
  0.1200000E+01  0.2541778E+07 -0.4400377E+00  0.1661916E-02 -0.2615453E+01  0.1740169E+05 -0.1976033E+01  0.7135329E-01 -0.1189253E+01  0.9836702E+05 -0.2408159E+00  0.5756919E+01  0.2601769E+01  0.2563303E+06 -0.4410405E+00  0.1650490E-03 -0.1515298E+01  0.4579649E+03  0.1259781E+01  0.3583398E-02 -0.1920222E+01  0.1697358E+06 -0.4297513E+00  0.9025437E-01 -0.1968049E+01
  0.1240000E+01  0.2419868E+07 -0.3813436E+00  0.3946014E-02 -0.2305129E+01  0.1706394E+05 -0.1946514E+01  0.3148647E-02 -0.1306323E+01  0.2585559E+06 -0.3061276E+00  0.1254286E+01 -0.6996798E+00  0.2323440E+06 -0.3824992E+00  0.8260981E-04 -0.1339706E+01  0.5018486E+03  0.1279556E+01  0.2585858E-02 -0.2164887E+01  0.1537785E+06 -0.3701388E+00  0.4260454E+00  0.3032264E+01
  0.1280000E+01  0.2290906E+07 -0.3282325E+00  0.3271463E-02  0.2342449E+01  0.1661336E+05 -0.1918414E+01  0.3023160E-01 -0.1412989E+01  0.4086025E+06 -0.2811922E+00  0.2558564E+01 -0.4618524E+00  0.2086240E+06 -0.3295073E+00  0.1091830E-03  0.1390943E+01  0.5410861E+03  0.1303812E+01  0.2863811E-02 -0.2095864E+01  0.1380018E+06 -0.3159903E+00  0.1541130E+00 -0.1038438E+01
  0.1320000E+01  0.2159278E+07 -0.2808308E+00  0.2760478E-02  0.7264913E+00  0.1606304E+05 -0.1898078E+01  0.4361174E-01  0.2482885E+01  0.5453959E+06 -0.2464556E+00  0.5012695E+01  0.3091938E+01  0.1857474E+06 -0.2822221E+00  0.3021240E-04  0.0000000E+00  0.5774479E+03  0.1330385E+01  0.3513743E-02 -0.2209497E+01  0.1227896E+06 -0.2674637E+00  0.1442231E+00  0.3088848E+01
  0.1360000E+01  0.2028441E+07 -0.2390266E+00  0.1195985E-02 -0.1945459E+01  0.1538516E+05 -0.1872191E+01  0.2729729E-01  0.1511464E+01  0.6680390E+06 -0.2121615E+00  0.3344576E+01  0.2679485E+01  0.1641121E+06 -0.2405876E+00  0.7928673E-04 -0.1305979E+01  0.6154719E+03  0.1357990E+01  0.2971490E-02  0.9716561E+00  0.1084028E+06 -0.2245155E+00  0.6075964E-01 -0.2549961E+01
  0.1400000E+01  0.1900980E+07 -0.2025605E+00  0.1523094E-02  0.2051811E+01  0.1460900E+05 -0.1845680E+01  0.1067237E-01  0.1777432E+01  0.7759593E+06 -0.1806512E+00  0.3963121E+01 -0.1000249E+00  0.1440217E+06 -0.2042867E+00  0.9847535E-04 -0.7086262E+00  0.6505091E+03  0.1379578E+01  0.7894692E-02 -0.1602596E+01  0.9504643E+05 -0.1868126E+00  0.2096209E-01 -0.1295489E+01
  0.1440000E+01  0.1778655E+07 -0.1712313E+00  0.3468648E-02 -0.2590193E+01  0.1375397E+05 -0.1821513E+01  0.2411296E-01  0.2307600E+01  0.8695111E+06 -0.1528085E+00  0.2130521E+01 -0.2089122E+00  0.1256494E+06 -0.1729776E+00  0.4701391E-04  0.1453688E+01  0.6739509E+03  0.1400109E+01  0.1232300E-02  0.2397219E+01  0.8283884E+05 -0.1539892E+00  0.8210797E-01  0.3225439E+00
  0.1480000E+01  0.1662550E+07 -0.1445719E+00  0.1884769E-02  0.8890617E+00  0.1283806E+05 -0.1789051E+01  0.1161256E-01  0.2144004E+01  0.9494111E+06 -0.1288541E+00  0.9112417E+00  0.2539150E+01  0.1090268E+06 -0.1462057E+00  0.7697514E-04 -0.1607477E+01  0.6895546E+03  0.1421058E+01  0.7326711E-03 -0.2869511E+01  0.7179827E+05 -0.1255915E+00  0.3973180E-01 -0.2237959E+01
  0.1520000E+01  0.1553386E+07 -0.1223571E+00  0.1553546E-02  0.5787899E+00  0.1188532E+05 -0.1766970E+01  0.1254397E-01  0.1329720E+01  0.1016096E+07 -0.1089233E+00  0.8198821E+00  0.2241747E+01  0.9414443E+05 -0.1239165E+00  0.3797387E-04 -0.1339706E+01  0.6988788E+03  0.1445078E+01  0.4480903E-02 -0.1591502E+01  0.6191928E+05 -0.1015984E+00  0.1788442E-01 -0.9942138E+00
  0.1560000E+01  0.1451198E+07 -0.1041975E+00  0.2122417E-03  0.1602201E+01  0.1091395E+05 -0.1754097E+01  0.1488896E-01 -0.1708927E+01  0.1070601E+07 -0.9272335E-01  0.1016624E+01  0.2691630E+01  0.8091295E+05 -0.1057738E+00  0.2612018E-04 -0.1919567E+01  0.7113379E+03  0.1466774E+01  0.2183046E-02 -0.1702019E+01  0.5313855E+05 -0.8168738E-01  0.4652974E-01  0.2207969E-01
  0.1600000E+01  0.1356183E+07 -0.8994681E-01  0.1957396E-03 -0.1018057E+01  0.9945169E+04 -0.1745701E+01  0.1030745E-01  0.4869204E+00  0.1114070E+07 -0.8010589E-01  0.4463811E+00 -0.1832328E-01  0.6927007E+05 -0.9131590E-01  0.2177053E-04  0.1939591E+00  0.7110396E+03  0.1475732E+01  0.4500579E-02 -0.1570796E+01  0.4541980E+05 -0.6533731E-01  0.8401604E-02  0.6153830E+00
  0.1640000E+01  0.1268059E+07 -0.7938953E-01  0.4647281E-03 -0.1462331E+01  0.9018160E+04 -0.1725318E+01  0.2796408E-02  0.2142898E+01  0.1147875E+07 -0.7097467E-01  0.1594561E+01  0.3048584E+01  0.5907639E+05 -0.8008338E-01  0.7974997E-05  0.1973956E+00  0.7003986E+03  0.1478685E+01  0.5345939E-03  0.2273869E+01  0.3866760E+05 -0.5205414E-01  0.3278248E-02  0.4707953E+00
  0.1680000E+01  0.1186627E+07 -0.7254291E-01  0.1204141E-02  0.8376222E+00  0.8128261E+04 -0.1716418E+01  0.7768685E-02 -0.2158141E+01  0.1172719E+07 -0.6540272E-01  0.3522682E+01  0.3061652E+01  0.5022080E+05 -0.7227736E-01  0.1477130E-04  0.1789465E+01  0.6830988E+03  0.1482356E+01  0.1125331E-02  0.1874424E+01  0.3280747E+05 -0.4208186E-01  0.3306594E-01  0.2983557E+01
  0.1720000E+01  0.1111689E+07 -0.6927925E-01  0.4995680E-03  0.2526189E+01  0.7304732E+04 -0.1701180E+01  0.6919977E-02  0.1952381E+01  0.1190146E+07 -0.6335481E-01  0.5567793E+00 -0.2476009E+01  0.4256243E+05 -0.6810521E-01  0.2174970E-04 -0.1608514E+01  0.6627949E+03  0.1491878E+01  0.1614603E-02 -0.1518961E+01  0.2774668E+05 -0.3571858E-01  0.3061825E-01  0.3090850E+01
  0.1760000E+01  0.1042930E+07 -0.6972277E-01  0.7097972E-04  0.6636345E+00  0.6527998E+04 -0.1708057E+01  0.8665264E-02 -0.1129717E+01  0.1201300E+07 -0.6490006E-01  0.1637315E+00 -0.5835487E+00  0.3596980E+05 -0.6766547E-01  0.3383057E-05  0.3017238E+01  0.6486897E+03  0.1498569E+01  0.2152290E-02 -0.1291908E+01  0.2339333E+05 -0.3306830E-01  0.2347158E-02  0.1535033E+01
  0.1800000E+01  0.9806699E+06 -0.7392887E-01  0.1151151E-02  0.9114528E+00  0.5799667E+04 -0.1742922E+01  0.5522060E-02  0.7126303E+00  0.1207810E+07 -0.7007647E-01  0.4159025E+01 -0.3093179E+01  0.3036133E+05 -0.7042605E-01  0.1267275E-04 -0.1076855E+01  0.6275654E+03  0.1484017E+01  0.1644639E-02 -0.1359430E+01  0.1969701E+05 -0.3350005E-01  0.2361600E-01  0.6067768E-01
  0.1840000E+01  0.9247819E+06 -0.8182903E-01  0.8776375E-03  0.1963772E+01  0.5184663E+04 -0.1724327E+01  0.2445934E-02  0.1629299E+01  0.1211728E+07 -0.7890010E-01  0.1337271E+01  0.2657168E+01  0.2558219E+05 -0.7577996E-01  0.2080890E-04 -0.1892547E+01  0.6033633E+03  0.1461201E+01  0.1027387E-02 -0.2017639E+01  0.1655151E+05 -0.3631943E-01  0.1258987E-01  0.6822657E-01
  0.1880000E+01  0.8755734E+06 -0.9313265E-01  0.4707748E-03  0.1759323E+01  0.4602094E+04 -0.1748646E+01  0.7375877E-02 -0.9720156E-01  0.1214642E+07 -0.9103813E-01  0.8130884E+00  0.1264618E+01  0.2156351E+05 -0.8380949E-01  0.1776019E-04  0.1748392E+01  0.5748400E+03  0.1442437E+01  0.7532038E-03  0.1198025E+01  0.1391086E+05 -0.4173538E-01  0.3640394E-02  0.3047710E+01
  0.1920000E+01  0.8333420E+06 -0.1069918E+00  0.2090100E-02  0.1961626E+01  0.4072616E+04 -0.1792778E+01  0.8339399E-02 -0.1436845E+01  0.1218680E+07 -0.1056245E+00  0.1224569E+01 -0.2511426E+00  0.1820378E+05 -0.9431498E-01  0.3806326E-04  0.1630965E+01  0.5405978E+03  0.1438447E+01  0.2693749E-02  0.1643593E+01  0.1171043E+05 -0.4968950E-01  0.6644645E-02  0.2517207E+00
  0.1960000E+01  0.7980355E+06 -0.1217566E+00  0.1400606E-02  0.1350642E+01  0.3619524E+04 -0.1802026E+01  0.1240283E-02  0.1727800E+01  0.1225599E+07 -0.1209981E+00  0.4868650E+00  0.5006795E+00  0.1540729E+05 -0.1058449E+00  0.1967662E-04  0.1642104E+01  0.5149131E+03  0.1446024E+01  0.1683387E-02 -0.2576844E+01  0.9882679E+04 -0.5884312E-01  0.1575145E-01 -0.2968562E+01
  0.2000000E+01  0.7692736E+06 -0.1352327E+00  0.1672169E-02  0.1210835E+01  0.3214146E+04 -0.1818746E+01  0.9530538E-02 -0.1542524E+01  0.1236449E+07 -0.1349402E+00  0.1344399E+01 -0.3577529E+00  0.1307772E+05 -0.1156889E+00  0.1912705E-04 -0.1645656E+01  0.4933322E+03  0.1429508E+01  0.1473494E-02  0.1543610E+01  0.8363078E+04 -0.6626128E-01  0.5491149E-02 -0.1815418E+01
  0.2040000E+01  0.7458809E+06 -0.1448709E+00  0.2519824E-02  0.1269200E+01  0.2855668E+04 -0.1822568E+01  0.4863561E-02  0.1963745E+01  0.1250718E+07 -0.1449088E+00  0.1772333E+01  0.3082412E+01  0.1112696E+05 -0.1207873E+00  0.1538049E-05  0.2819842E+01  0.4730662E+03  0.1399568E+01  0.2423099E-03 -0.2885904E+01  0.7096257E+04 -0.6856476E-01  0.1229226E-01 -0.5784407E-01
  0.2080000E+01  0.7259446E+06 -0.1487541E+00  0.1996393E-02 -0.2296653E+01  0.2521838E+04 -0.1864307E+01  0.7779086E-02  0.2151859E+01  0.1266103E+07 -0.1490460E+00  0.1291422E+01 -0.1466379E+01  0.9479037E+04 -0.1188370E+00  0.6522686E-05 -0.1723446E+01  0.4517517E+03  0.1368345E+01  0.3024174E-02  0.1586211E+01  0.6027675E+04 -0.6348671E-01  0.1369227E-02  0.1652560E+01
  0.2120000E+01  0.7070762E+06 -0.1461433E+00  0.6158053E-03  0.2674201E+01  0.2271294E+04 -0.1755055E+01  0.8448967E-02 -0.2573751E+01  0.1279323E+07 -0.1466496E+00  0.2597325E+01 -0.4507100E+00  0.8058952E+04 -0.1098457E+00  0.4659994E-05  0.2922924E+01  0.4191166E+03  0.1353124E+01  0.7922756E-03 -0.8803873E+00  0.5111914E+04 -0.5093641E-01  0.1227910E-01  0.2434768E+00
  0.2160000E+01  0.6874449E+06 -0.1377773E+00  0.6823551E-03 -0.3257403E+00  0.1985664E+04 -0.1792242E+01  0.1974588E-02  0.3013368E+00  0.1287017E+07 -0.1384418E+00  0.1708537E+01 -0.3061024E+01  0.6829876E+04 -0.9419551E-01  0.1036705E-04  0.1821799E+01  0.3796852E+03  0.1360903E+01  0.1490738E-02 -0.7346895E+00  0.4324164E+04 -0.3150662E-01  0.1104745E-01 -0.3485006E-01
  0.2200000E+01  0.6658809E+06 -0.1252649E+00  0.1153250E-02  0.1467794E+01  0.1724627E+04 -0.1849925E+01  0.4330415E-02 -0.4228608E+00  0.1287157E+07 -0.1260978E+00  0.1009239E+01 -0.5487646E+00  0.5758532E+04 -0.7359771E-01  0.6031989E-05  0.1570796E+01  0.3479552E+03  0.1390189E+01  0.5055632E-03 -0.1356207E+01  0.3639268E+04 -0.7159173E-02  0.7541917E-02  0.2973951E+00
  0.2240000E+01  0.6421879E+06 -0.1106916E+00  0.2523453E-02 -0.2480841E-01  0.1504018E+04 -0.1865873E+01  0.2763251E-02 -0.2891909E+01  0.1279065E+07 -0.1116591E+00  0.1478611E+01  0.3473850E+00  0.4831739E+04 -0.4877006E-01  0.3471374E-05  0.2746802E+01  0.3256700E+03  0.1392780E+01  0.1797030E-03 -0.1611790E+00  0.3047950E+04  0.2154034E-01  0.8440774E-02  0.4966573E-01
  0.2280000E+01  0.6167043E+06 -0.9587532E-01  0.1340758E-02 -0.1607983E+01  0.1307402E+04 -0.1861230E+01  0.6596327E-02 -0.6072457E+00  0.1263357E+07 -0.9699365E-01  0.8231930E+00  0.2438666E+01  0.4032336E+04 -0.1993146E-01  0.1400811E-05  0.2449787E+00  0.3098177E+03  0.1378908E+01  0.1021854E-02 -0.1309496E+01  0.2540975E+04  0.5517206E-01  0.2065999E-02  0.3333763E+00
  0.2320000E+01  0.5901542E+06 -0.8177844E-01  0.4461424E-02 -0.4915845E-01  0.1200762E+04 -0.1665082E+01  0.3678012E-02 -0.2153520E+01  0.1241263E+07 -0.8310112E-01  0.3496290E+00 -0.1598045E+01  0.3354196E+04  0.1287149E-01  0.2473677E-05  0.2034444E+01  0.2945557E+03  0.1356360E+01  0.1489229E-02 -0.1476641E+01  0.2110749E+04  0.9332629E-01  0.4809129E-02  0.2275374E-01
  0.2360000E+01  0.5630217E+06 -0.6932706E-01  0.5778152E-03  0.5531350E+00  0.1241483E+04 -0.1371396E+01  0.5721403E-02 -0.2916322E+00  0.1213718E+07 -0.7074276E-01  0.1469924E+01 -0.2339984E+01  0.2791960E+04  0.4612231E-01  0.1195669E-05 -0.2060754E+01  0.2686052E+03  0.1335604E+01  0.8607003E-03  0.1644162E+01  0.1754886E+04  0.1318811E+00  0.3580983E-03  0.1267633E+01
  0.2400000E+01  0.5358907E+06 -0.5914989E-01  0.9028212E-03 -0.3128643E+01  0.7827234E+03 -0.1973876E+01  0.4874799E-02  0.3853557E+00  0.1182577E+07 -0.6081035E-01  0.1113361E+01  0.1799062E+00  0.2304492E+04  0.8645120E-01  0.6357960E-06 -0.2690523E+01  0.2258002E+03  0.1329901E+01  0.9024023E-03 -0.1659407E+01  0.1450099E+04  0.1790789E+00  0.9086705E-03  0.7901195E-01
  0.2440000E+01  0.5092104E+06 -0.5129049E-01  0.3855258E-03  0.5538533E+00  0.6399493E+03 -0.2073849E+01  0.1923352E-02  0.5151446E+00  0.1148742E+07 -0.5313193E-01  0.4502624E+00 -0.1160183E+00  0.1908093E+04  0.1242022E+00  0.1626016E-06 -0.2034444E+01  0.1848223E+03  0.1347165E+01  0.1435172E-03  0.2615761E+01  0.1202921E+04  0.2222188E+00  0.3043834E-03 -0.9331044E+00
  0.2480000E+01  0.4832983E+06 -0.4605647E-01  0.4941439E-03 -0.1749626E+01  0.5361412E+03 -0.1919259E+01  0.6745331E-02  0.3342510E+00  0.1113116E+07 -0.4810244E-01  0.6191530E+00  0.3383782E+00  0.1585745E+04  0.1655002E+00  0.1045242E-06  0.7853982E+00  0.1551939E+03  0.1386248E+01  0.2079258E-03 -0.1864526E+01  0.1002523E+04  0.2674221E+00  0.1314938E-02 -0.1932343E+00
  0.2520000E+01  0.4585012E+06 -0.4359448E-01  0.5773012E-03 -0.2562496E+01  0.4288486E+03 -0.2207166E+01  0.1942739E-02  0.1140207E+01  0.1076872E+07 -0.4578894E-01  0.2160843E+00 -0.8966943E+00  0.1322563E+04  0.2103155E+00  0.3347934E-05  0.1974215E+01  0.1389577E+03  0.1389171E+01  0.1246851E-03  0.8311732E+00  0.8396874E+03  0.3152688E+00  0.1151070E-02  0.3131477E+01
  0.2560000E+01  0.4350166E+06 -0.4405830E-01  0.1014243E-02 -0.1565928E+01  0.3529886E+03 -0.2010254E+01  0.2874636E-02  0.2844021E+01  0.1040911E+07 -0.4633275E-01  0.1107084E+01 -0.1088973E+01  0.1107529E+04  0.2594724E+00  0.8327057E-06 -0.2790865E+01  0.1342254E+03  0.1379944E+01  0.5420381E-04  0.2241361E+01  0.7078510E+03  0.3680182E+00  0.6791222E-03 -0.2962961E+01
  0.2600000E+01  0.4132965E+06 -0.4714935E-01  0.3558687E-03  0.2197512E+01  0.4279380E+03 -0.1325801E+01  0.2316467E-02 -0.1328478E+01  0.1006305E+07 -0.4955852E-01  0.1600287E+01 -0.3207675E-01  0.9388500E+03  0.3130639E+00  0.3123562E-06 -0.1243550E+00  0.1343292E+03  0.1355746E+01  0.2992005E-03 -0.2061824E+01  0.6027015E+03  0.4238779E+00  0.4608845E-03  0.2954504E+00
  0.2640000E+01  0.3933378E+06 -0.5250395E-01  0.1006140E-02 -0.1026959E+01  0.2446962E+03 -0.1733705E+01  0.3288626E-02  0.1028057E+01  0.9738092E+06 -0.5504280E-01  0.1874068E+01 -0.3059572E+01  0.7977529E+03  0.3760247E+00  0.6341720E-06 -0.3019161E+01  0.1254202E+03  0.1322535E+01  0.3848100E-04 -0.8120573E+00  0.5145794E+03  0.4890793E+00  0.1217443E-02  0.2730051E+01
  0.2680000E+01  0.3753968E+06 -0.5912673E-01  0.1351772E-02  0.1718097E+01  0.1670593E+03 -0.2475248E+01  0.3806059E-02  0.3258566E-01  0.9442055E+06 -0.6173779E-01  0.7369765E+00  0.2593030E+01  0.6834055E+03  0.4369054E+00  0.1063589E-05 -0.1697783E+00  0.9944574E+02  0.1237580E+01  0.2449831E-03 -0.1803805E+01  0.4443530E+03  0.5516362E+00  0.3219157E-03 -0.2919370E+01
  0.2720000E+01  0.3593603E+06 -0.6562676E-01  0.6101883E-03 -0.9903740E+00  0.1463130E+03 -0.1511500E+01  0.6915204E-02  0.4712860E+00  0.9174794E+06 -0.6824375E-01  0.1318193E+01 -0.3114307E+01  0.5914536E+03  0.4961690E+00  0.1219350E-05  0.7485985E-01  0.6924770E+02  0.1126506E+01  0.4671396E-04 -0.3132808E+01  0.3882853E+03  0.6098499E+00  0.5160259E-03 -0.3791253E+00
  0.2760000E+01  0.3448912E+06 -0.7034545E-01  0.5722017E-03  0.1846897E+01  0.1815864E+03  0.2835308E+01  0.2961376E-02 -0.1051196E+01  0.8931735E+06 -0.7298907E-01  0.1048142E+01 -0.2866834E+00  0.5166407E+03  0.5573938E+00  0.1554185E-05 -0.2674987E+01  0.4577886E+02  0.1097427E+01  0.1832064E-03  0.1484937E+01  0.3420950E+03  0.6662210E+00  0.6907868E-03 -0.3015322E+01
  0.2800000E+01  0.3313471E+06 -0.7222325E-01  0.6933239E-03  0.2948280E+01  0.8691008E+02  0.2833982E+01  0.3843320E-02 -0.2448537E+01  0.8697324E+06 -0.7479677E-01  0.5009527E+00 -0.2947804E+01  0.4561358E+03  0.6196184E+00  0.6780028E-06  0.2214298E+01  0.3130190E+02  0.1087664E+01  0.3089683E-04 -0.2465237E+01  0.3041470E+03  0.7198634E+00  0.6292590E-03 -0.7958713E+00
  0.2840000E+01  0.3184227E+06 -0.7081270E-01  0.9907458E-03  0.1068259E+01  0.8639138E+02 -0.7815561E+00  0.4578880E-02 -0.2432344E+01  0.8464706E+06 -0.7341139E-01  0.1751087E+00 -0.1350374E+01  0.4106156E+03  0.6795458E+00  0.5139932E-06  0.2986596E+01  0.2792160E+02  0.1157081E+01  0.8023252E-04  0.1148234E+01  0.2758806E+03  0.7696313E+00  0.3772425E-03  0.1706389E+01
  0.2880000E+01  0.3053634E+06 -0.6675567E-01  0.2304366E-02 -0.2977446E+00  0.1335421E+03  0.2299325E+01  0.1999017E-02  0.5588941E-01  0.8216856E+06 -0.6910591E-01  0.2596751E+00  0.8167276E-01  0.3719569E+03  0.7348157E+00  0.6973743E-06 -0.2103300E+01  0.4045731E+02  0.1378501E+01  0.8277560E-04 -0.1256793E+01  0.2514652E+03  0.8168312E+00  0.2411709E-03 -0.1809571E+01
  0.2920000E+01  0.2920581E+06 -0.6071916E-01  0.1978518E-02 -0.1765839E+00  0.1983590E+03  0.2218113E+01  0.5801120E-02  0.3098252E+01  0.7948715E+06 -0.6303244E-01  0.2803064E+00  0.3332166E+00  0.3430505E+03  0.7966039E+00  0.2178287E-06 -0.1520838E+01  0.5453194E+02  0.1483100E+01  0.2718061E-03  0.1403856E+01  0.2314037E+03  0.8707055E+00  0.2225546E-03 -0.1563096E+00
  0.2960000E+01  0.2783799E+06 -0.5386557E-01  0.4656870E-03 -0.2499796E+01  0.2647849E+03  0.2164188E+01  0.4694985E-02  0.3139210E+01  0.7660365E+06 -0.5611319E-01  0.1032084E+00 -0.3015287E+01  0.3148392E+03  0.8585152E+00  0.1949728E-05 -0.9137214E+00  0.5874444E+02  0.1507437E+01  0.3153764E-03  0.1571461E+01  0.2114732E+03  0.9264616E+00  0.5453431E-03 -0.2005607E+01
  0.3000000E+01  0.2644832E+06 -0.4719647E-01  0.8240215E-03  0.3074579E+01  0.3246623E+03  0.2123247E+01  0.1274012E-02  0.1087681E+01  0.7354832E+06 -0.4930285E-01  0.1741488E+00 -0.1095856E+01  0.2864315E+03  0.9105049E+00  0.2324581E-05  0.1570796E+01  0.4494512E+02  0.1413854E+01  0.5706909E-04 -0.1617029E+01  0.1922454E+03  0.9746774E+00  0.8262585E-04 -0.2823824E+01
  0.3040000E+01  0.2504455E+06 -0.4140264E-01  0.2034811E-02 -0.1836350E-01  0.1757577E+03 -0.3472849E+00  0.3613498E-02 -0.6871010E+00  0.7034769E+06 -0.4344820E-01  0.1264663E+00  0.3160549E+00  0.2595912E+03  0.9537345E+00  0.2476294E-05 -0.1561264E+00  0.2189700E+02  0.9900908E+00  0.9925240E-04  0.9414486E+00  0.1745547E+03  0.1013562E+01  0.1654015E-03  0.2382753E+01
  0.3080000E+01  0.2366125E+06 -0.3727626E-01  0.7487848E-03  0.2813608E+01  0.2453788E+03  0.1870432E+01  0.1157060E-02  0.2579066E+01  0.6709022E+06 -0.3915399E-01  0.2086487E+00  0.2992099E+01  0.2367365E+03  0.9918106E+00  0.1728193E-05  0.9671412E+00  0.1096070E+02  0.9540264E-02  0.4241584E-04  0.5318020E-01  0.1591768E+03  0.1045926E+01  0.2952837E-03  0.1324399E+01
  0.3120000E+01  0.2230037E+06 -0.3506056E-01  0.1401776E-02  0.2801482E+01  0.7501092E+03  0.2119962E+01  0.7326739E-03  0.2721419E+01  0.6381203E+06 -0.3687546E-01  0.1334990E+00  0.4881652E+00  0.2166120E+03  0.1031669E+01  0.5345526E-05 -0.1342694E+01  0.1679073E+02 -0.9669745E+00  0.4925870E-04  0.1991800E+01  0.1458189E+03  0.1077439E+01  0.3179662E-03  0.7571431E+00