VARIABLES="w (rad/s)"  
"abs(F   1   1)" "angle(F   1   1)"
"abs(F   1   2)" "angle(F   1   2)"
"abs(F   1   3)" "angle(F   1   3)"
"abs(F   1   4)" "angle(F   1   4)"
"abs(F   1   5)" "angle(F   1   5)"
"abs(F   1   6)" "angle(F   1   6)"
"abs(F   2   1)" "angle(F   2   1)"
"abs(F   2   2)" "angle(F   2   2)"
"abs(F   2   3)" "angle(F   2   3)"
"abs(F   2   4)" "angle(F   2   4)"
"abs(F   2   5)" "angle(F   2   5)"
"abs(F   2   6)" "angle(F   2   6)"
Zone t="Excitation force - beta =   0.000 deg",I=   500,F=POINT
  0.4000000E-01  0.1189822E+06 -0.1570162E+01  0.7048675E-01 -0.3140508E+01  0.3174542E+06 -0.1221416E-03  0.1197105E+00  0.3136827E+01  0.9126753E+05  0.1571374E+01  0.1608922E+00  0.1870174E+01  0.1938838E+05 -0.1570162E+01  0.5473222E-03  0.5575825E-02  0.5441214E+01  0.3136360E+01  0.1180983E-01  0.4321084E-02  0.1300422E+05 -0.1570159E+01  0.1700502E-01 -0.1437647E+01
  0.8000000E-01  0.2372971E+06 -0.1568253E+01  0.1322822E-01  0.6438402E-02  0.3163989E+06 -0.4887732E-03  0.3113607E+00 -0.3133490E+01  0.1826379E+06  0.1573340E+01  0.5736305E+00  0.1666585E+01  0.3871609E+05 -0.1568269E+01  0.6243964E-04  0.3082909E+01  0.2176444E+02  0.3137203E+01  0.1069457E+00 -0.1056174E-02  0.2596644E+05 -0.1568270E+01  0.5549530E-01 -0.1839104E+01
  0.1200000E+00  0.3576949E+06 -0.1565084E+01  0.3230684E-01 -0.3132326E+01  0.3146683E+06 -0.1100010E-02  0.3589731E-01  0.2899066E+01  0.2741277E+06  0.1576531E+01  0.1523687E+01  0.1445314E+01  0.5826348E+05 -0.1565074E+01  0.4273495E-02 -0.1396984E-02  0.4861266E+02  0.3138296E+01  0.4377157E-02 -0.3140528E+01  0.3907510E+05 -0.1565078E+01  0.2532901E-01  0.2178961E+01
  0.1600000E+00  0.4797712E+06 -0.1560498E+01  0.6648517E-03  0.2061006E+01  0.3123291E+06 -0.1958814E-02  0.2147114E+00  0.3134285E+01  0.3655174E+06  0.1581080E+01  0.1614520E+01 -0.1554360E+01  0.7797105E+05 -0.1560507E+01  0.2324678E-02  0.3140543E+01  0.8590553E+02  0.3137751E+01  0.2681549E-01  0.1168812E-01  0.5229008E+05 -0.1560507E+01  0.2278258E-01 -0.2494006E+01
  0.2000000E+00  0.6039929E+06 -0.1554486E+01  0.8392677E-01 -0.5651785E-02  0.3093830E+06 -0.3067380E-02  0.8403482E-02 -0.2997050E+01  0.4565222E+06  0.1587104E+01  0.3559808E+00  0.3026327E+01  0.9786409E+05 -0.1554488E+01  0.3181304E-03 -0.3093610E+01  0.1339035E+03  0.3136831E+01  0.3420835E-02  0.2959036E+01  0.6562822E+05 -0.1554491E+01  0.9078765E-01 -0.1582842E+01
  0.2400000E+00  0.7305512E+06 -0.1546929E+01  0.1303783E-01  0.3139097E+01  0.3058514E+06 -0.4430107E-02  0.3323578E-01 -0.2430620E+00  0.5467268E+06  0.1594673E+01  0.3601001E+00 -0.1925890E+01  0.1179276E+06 -0.1546931E+01  0.2700792E-03  0.9505883E-01  0.1924239E+03  0.3136037E+01  0.1523295E+00  0.3718493E-02  0.7907886E+05 -0.1546930E+01  0.1117818E+00  0.1594464E+01
  0.2800000E+00  0.8596887E+06 -0.1537703E+01  0.4346544E-01 -0.3139125E+01  0.3017537E+06 -0.6051960E-02  0.2350031E+00 -0.3138585E+01  0.6357181E+06  0.1603899E+01  0.1703417E+00  0.2647824E+01  0.1381499E+06 -0.1537700E+01  0.1833646E-02 -0.2226201E-01  0.2601637E+03  0.3133966E+01  0.4441324E-01 -0.3114311E+01  0.9263348E+05 -0.1537700E+01  0.1036391E+00 -0.1529518E+01
  0.3200000E+00  0.9915784E+06 -0.1526665E+01  0.7388994E-01  0.6676617E-02  0.2971081E+06 -0.7939579E-02  0.2957909E+00 -0.3951051E-01  0.7229678E+06  0.1614927E+01  0.2148276E+01 -0.1485849E+01  0.1585087E+06 -0.1526661E+01  0.1315822E-04  0.2913490E+01  0.3374973E+03  0.3132308E+01  0.8433619E-02 -0.2969486E+01  0.1062767E+06 -0.1526664E+01  0.6938869E-01  0.1883025E+01
  0.3600000E+00  0.1126390E+07 -0.1513645E+01  0.6290358E-01 -0.5708878E-03  0.2919332E+06 -0.1010155E-01  0.3248490E+00 -0.3114397E+01  0.8077955E+06  0.1627948E+01  0.1578574E+00  0.1467594E+01  0.1789715E+06 -0.1513645E+01  0.3545797E-02  0.3134320E+01  0.4240857E+03  0.3130528E+01  0.2216486E-01  0.1707026E-01  0.1199868E+06 -0.1513645E+01  0.9955359E-01 -0.2008937E+01
  0.3999999E+00  0.1264193E+07 -0.1498455E+01  0.1356761E-01 -0.3067125E+01  0.2862483E+06 -0.1254679E-01  0.2526215E-01 -0.2790965E+01  0.8895607E+06  0.1643140E+01  0.1943757E+01 -0.1495932E+01  0.1994846E+06 -0.1498454E+01  0.4851341E-02 -0.6290584E-02  0.5192194E+03  0.3127960E+01  0.4060528E-01  0.3084687E+01  0.1337264E+06 -0.1498456E+01  0.3114174E-01  0.2671681E+01
  0.4400000E+00  0.1405009E+07 -0.1480875E+01  0.7514396E-01 -0.8463955E-02  0.2800644E+06 -0.1528611E-01  0.4276701E-01 -0.1696989E-01  0.9672903E+06  0.1660727E+01  0.1214199E+00  0.6733437E+00  0.2199831E+06 -0.1480873E+01  0.2438734E-02 -0.1564213E-02  0.6221760E+03  0.3125248E+01  0.2579927E-01 -0.3097670E+01  0.1474522E+06 -0.1480875E+01  0.3694080E-01 -0.1389234E+01
  0.4800000E+00  0.1548738E+07 -0.1460651E+01  0.2567443E-01 -0.1203660E+00  0.2734145E+06 -0.1833150E-01  0.2381774E+00 -0.7352594E-01  0.1040064E+07  0.1680953E+01  0.7276416E+00 -0.1543008E+01  0.2403759E+06 -0.1460648E+01  0.4054651E-03  0.3096041E+01  0.7331046E+03  0.3122253E+01  0.5981028E-01  0.3851189E-01  0.1611018E+06 -0.1460653E+01  0.1571074E+00  0.1398115E+01
  0.5200000E+00  0.1695139E+07 -0.1437499E+01  0.3195663E-01 -0.2743084E-01  0.2663188E+06 -0.2169791E-01  0.2269806E+00  0.3862830E-01  0.1106741E+07  0.1704108E+01  0.1456289E+01 -0.1431132E+01  0.2605484E+06 -0.1437499E+01  0.1855372E-02 -0.3137316E+01  0.8507286E+03  0.3118966E+01  0.5311303E-01  0.3137419E+01  0.1745979E+06 -0.1437504E+01  0.8200560E-01  0.1218350E+01
  0.5600000E+00  0.1843630E+07 -0.1411145E+01  0.6842527E-01  0.3130818E+01  0.2588062E+06 -0.2540049E-01  0.2657433E-01  0.2970679E+01  0.1165728E+07  0.1730470E+01  0.9887006E+00  0.2348962E+01  0.2803294E+06 -0.1411139E+01  0.2898183E-02  0.3066497E+01  0.9742441E+03  0.3115234E+01  0.9111083E-01 -0.3134277E+01  0.1878251E+06 -0.1411146E+01  0.3867920E-01 -0.2704934E+00
  0.6000000E+00  0.1993550E+07 -0.1381241E+01  0.1053618E-01  0.3099614E+01  0.2508960E+06 -0.2945705E-01  0.1122738E+00 -0.2997145E+01  0.1215595E+07  0.1760385E+01  0.3871915E+01  0.1609363E+01  0.2995242E+06 -0.1381235E+01  0.3197051E-02  0.5324154E-01  0.1103656E+04  0.3111166E+01  0.1440193E+00 -0.3131806E+01  0.2006522E+06 -0.1381245E+01  0.5311452E-01  0.2575521E+00
  0.6400000E+00  0.2143719E+07 -0.1347469E+01  0.1514178E-01 -0.3089882E+01  0.2425985E+06 -0.3388692E-01  0.2275796E+00 -0.3067214E+01  0.1254352E+07  0.1794167E+01  0.1635997E+01 -0.2599558E+01  0.3178729E+06 -0.1347465E+01  0.4194745E-03  0.2784866E+01  0.1237430E+04  0.3106797E+01  0.4909234E-01 -0.7705258E-02  0.2129050E+06 -0.1347478E+01  0.1405483E+00 -0.7910967E+00
  0.6800000E+00  0.2292691E+07 -0.1309497E+01  0.1189010E-01 -0.1170921E+00  0.2339962E+06 -0.3871037E-01  0.9986471E-01 -0.6771837E-01  0.1280057E+07  0.1832148E+01  0.1157947E+01 -0.1421163E+01  0.3350838E+06 -0.1309489E+01  0.3815880E-02 -0.1731550E-01  0.1375855E+04  0.3102016E+01  0.1554692E+00 -0.3130485E+01  0.2243865E+06 -0.1309507E+01  0.9224774E-01 -0.2160829E+01
  0.7200000E+00  0.2438071E+07 -0.1267053E+01  0.4679345E-02  0.2209548E+01  0.2250798E+06 -0.4395100E-01  0.1417344E+00 -0.2789427E+01  0.1290242E+07  0.1874618E+01  0.1360005E+01  0.1647853E+01  0.3507108E+06 -0.1267043E+01  0.7077879E-03 -0.1552268E-01  0.1516767E+04  0.3096724E+01  0.2505973E-01 -0.2823373E-01  0.2347981E+06 -0.1267066E+01  0.2235053E+00 -0.1691678E+01
  0.7599999E+00  0.2577844E+07 -0.1219792E+01  0.2719893E-01 -0.3041635E+01  0.2159000E+06 -0.4963037E-01  0.4852258E-01 -0.2973301E+01  0.1282461E+07  0.1921910E+01  0.1244754E+01  0.2066234E+01  0.3643545E+06 -0.1219778E+01  0.3576990E-03 -0.2300060E+01  0.1659260E+04  0.3091047E+01  0.2904768E-02  0.2099963E+01  0.2438708E+06 -0.1219807E+01  0.2010958E+00  0.1115664E+01
  0.8000000E+00  0.2705748E+07 -0.1168023E+01  0.2293422E-01  0.3077193E+01  0.2064537E+06 -0.5577771E-01  0.5719711E-01 -0.2585770E+01  0.1254349E+07  0.1973719E+01  0.5788312E+01  0.9119355E+00  0.3752552E+06 -0.1168007E+01  0.1091154E-02  0.3048464E+01  0.1802756E+04  0.3084956E+01  0.5292515E-01 -0.3128393E+01  0.2510980E+06 -0.1168044E+01  0.2617787E+00  0.2145463E+01
  0.8400000E+00  0.2820190E+07 -0.1111438E+01  0.7335168E-02  0.2965941E+01  0.1968366E+06 -0.6241350E-01  0.1106331E+00  0.3080447E+01  0.1203707E+07  0.2030367E+01  0.1175635E+01 -0.1224406E+01  0.3830387E+06 -0.1111413E+01  0.1813460E-02  0.3099173E+01  0.1945892E+04  0.3078476E+01  0.2636140E-01 -0.3121744E+01  0.2562286E+06 -0.1111459E+01  0.2622868E+00  0.1999079E+01
  0.8800000E+00  0.2915541E+07 -0.1050492E+01  0.3044599E-02  0.2305008E+01  0.1870795E+06 -0.6956356E-01  0.2207145E-01 -0.1731280E+01  0.1129193E+07  0.2091410E+01  0.3636587E+01 -0.1888243E+01  0.3870359E+06 -0.1050459E+01  0.2188717E-03 -0.1015670E+01  0.2086361E+04  0.3071204E+01  0.5309007E-01 -0.1246544E-01  0.2588140E+06 -0.1050519E+01  0.5314109E-01  0.2495203E+00
  0.9200000E+00  0.2986938E+07 -0.9858144E+00  0.1429774E-01  0.1588122E+00  0.1772134E+06 -0.7725058E-01  0.1822747E+00  0.3646732E+00  0.1029945E+07  0.2156221E+01  0.5893684E+01 -0.1575571E+01  0.3867274E+06 -0.9857694E+00  0.2443088E-02  0.3104484E+01  0.2223167E+04  0.3063572E+01  0.1005573E+00  0.8619444E-02  0.2585111E+06 -0.9858446E+00  0.1824254E+00  0.7983462E+00
  0.9600000E+00  0.3030228E+07 -0.9183295E+00  0.1943495E-01  0.3097263E+01  0.1672795E+06 -0.8549439E-01  0.2857389E+00  0.1820824E+00  0.9068001E+06  0.2223893E+01  0.7102183E+01  0.2085438E+01  0.3817734E+06 -0.9182664E+00  0.5425010E-04  0.1411015E+00  0.2357659E+04  0.3055616E+01  0.1254291E-01  0.3089405E-01  0.2550940E+06 -0.9183590E+00  0.2026411E+00 -0.2128128E+01
  0.1000000E+01  0.3042307E+07 -0.8492660E+00  0.2312607E-02 -0.2009849E+01  0.1572943E+06 -0.9430372E-01  0.3200078E-01 -0.2192526E+01  0.7622809E+06  0.2293291E+01  0.1356559E+01 -0.6723650E+00  0.3720493E+06 -0.8491780E+00  0.2187336E-02 -0.3071776E+01  0.2486280E+04  0.3047069E+01  0.8063686E-02 -0.1438958E+00  0.2484833E+06 -0.8492939E+00  0.1159866E+00 -0.1593097E+01
  0.1040000E+01  0.3022049E+07 -0.7800318E+00  0.4336708E-02 -0.2197461E+01  0.1474392E+06 -0.1036860E+00  0.2063029E+00  0.2797637E+01  0.6004793E+06  0.2363171E+01  0.7440495E+01 -0.7683848E+00  0.3577562E+06 -0.7799140E+00  0.2258333E-02  0.3136254E+01  0.2604715E+04  0.3037338E+01  0.1094213E-01  0.2900132E+01  0.2388145E+06 -0.7800600E+00  0.5067210E+00  0.2908578E+01
  0.1080000E+01  0.2970476E+07 -0.7121468E+00  0.2234972E-02  0.2939655E+00  0.1376837E+06 -0.1136319E+00  0.1841176E+00  0.3054007E+01  0.4262039E+06  0.2432267E+01  0.4904523E+01 -0.2388926E+01  0.3394248E+06 -0.7119843E+00  0.7699013E-03 -0.3007011E+01  0.2714840E+04  0.3027482E+01  0.5568935E-02  0.2690886E+01  0.2264513E+06 -0.7121640E+00  0.3944126E+00  0.1835852E+01
  0.1120000E+01  0.2890641E+07 -0.6471205E+00  0.9765229E-03 -0.2465188E+01  0.1280496E+06 -0.1241193E+00  0.1175127E+00  0.2868281E+01  0.2454517E+06  0.2500331E+01  0.3669651E+01  0.2483502E+01  0.3178414E+06 -0.6468817E+00  0.1622674E-02 -0.3120527E+01  0.2817198E+04  0.3017571E+01  0.3530793E-02 -0.2213885E+01  0.2119206E+06 -0.6471016E+00  0.5136717E-01  0.1143662E+01
  0.1160000E+01  0.2787172E+07 -0.5863280E+00  0.2120261E-01 -0.6363114E-01  0.1186830E+06 -0.1350920E+00  0.7043333E-01 -0.2754110E+01  0.6441121E+05  0.2582626E+01  0.1617841E+01  0.7971471E+00  0.2939312E+06 -0.5859978E+00  0.3073975E-02  0.3122679E+01  0.2908722E+04  0.3007144E+01  0.3925611E-01  0.1969614E-01  0.1958464E+06 -0.5862671E+00  0.5365194E-01 -0.1275746E+01
  0.1200000E+01  0.2666113E+07 -0.5305200E+00  0.2413341E-01 -0.3106660E+01  0.1095664E+06 -0.1464833E+00  0.1193963E+00 -0.2572571E+01  0.1120626E+06 -0.5501391E+00  0.5968260E+01  0.2551336E+01  0.2686744E+06 -0.5300927E+00  0.7290545E-03 -0.2226416E+00  0.2984394E+04  0.2994977E+01  0.4405137E-02 -0.2252448E+01  0.1788815E+06 -0.5304264E+00  0.8407812E-01 -0.1883319E+01
  0.1240000E+01  0.2533051E+07 -0.4806539E+00  0.1431010E-01 -0.2935123E+01  0.1007643E+06 -0.1581912E+00  0.5157314E-01 -0.3178886E-01  0.2794215E+06 -0.4900639E+00  0.1654457E+01 -0.9010070E+00  0.2430250E+06 -0.4800747E+00  0.8163481E-03 -0.9866432E-01  0.3045780E+04  0.2983100E+01  0.5868221E-02 -0.3711787E+00  0.1616698E+06 -0.4804828E+00  0.4364296E+00  0.3029034E+01
  0.1280000E+01  0.2393563E+07 -0.4370266E+00  0.4202845E-01  0.3088239E+01  0.9227769E+05 -0.1700870E+00  0.1080724E+00 -0.2745560E+00  0.4346960E+06 -0.4439735E+00  0.2707927E+01 -0.6362391E+00  0.2177938E+06 -0.4362003E+00  0.2583302E-03  0.4451556E+00  0.3094043E+04  0.2972099E+01  0.9042333E-02 -0.2775442E+00  0.1447535E+06 -0.4366913E+00  0.1575338E+00 -0.1061696E+01
  0.1320000E+01  0.2252298E+07 -0.3997889E+00  0.1865881E-02  0.1579889E+01  0.8404320E+05 -0.1819861E+00  0.3321046E-01  0.9795954E+00  0.5756809E+06 -0.4058571E+00  0.5228943E+01  0.3013339E+01  0.1935778E+06 -0.3986450E+00  0.7937714E-03 -0.3136787E+01  0.3127132E+04  0.2961271E+01  0.7712563E-02 -0.3782575E+00  0.1285314E+06 -0.3992310E+00  0.1420578E+00  0.3066136E+01
  0.1360000E+01  0.2112876E+07 -0.3688477E+00  0.2373553E-01 -0.5245396E-01  0.7631466E+05 -0.1937236E+00  0.4463196E-01  0.6623092E+00  0.7017530E+06 -0.3747128E+00  0.3486435E+01  0.2602636E+01  0.1707815E+06 -0.3673811E+00  0.3534252E-03 -0.2928871E+01  0.3143466E+04  0.2949027E+01  0.3502771E-02  0.7900186E+00  0.1132699E+06 -0.3681007E+00  0.6094119E-01 -0.2443141E+01
  0.1400000E+01  0.1977973E+07 -0.3439619E+00  0.1906868E-01  0.3064850E+01  0.6903139E+05 -0.2051185E+00  0.1884251E-01  0.2552178E+01  0.8125386E+06 -0.3498074E+00  0.3973422E+01 -0.1762515E+00  0.1497013E+06 -0.3420914E+00  0.1258735E-03 -0.2607410E+01  0.3138792E+04  0.2936692E+01  0.3313688E-01 -0.2404639E+00  0.9916835E+05 -0.3429711E+00  0.2769033E-01 -0.1559596E+01
  0.1440000E+01  0.1849420E+07 -0.3249331E+00  0.1561917E-01 -0.3021946E+01  0.6216679E+05 -0.2160017E+00  0.2051447E-01  0.9256503E+00  0.9086254E+06 -0.3307500E+00  0.2147922E+01  0.3599971E+00  0.1304984E+06 -0.3224111E+00  0.5262013E-03  0.8521225E-01  0.3115348E+04  0.2926755E+01  0.2571155E-02  0.2818322E+01  0.8633570E+05 -0.3234532E+00  0.8074456E-01  0.8589932E-01
  0.1480000E+01  0.1728275E+07 -0.3113050E+00  0.1108145E-01  0.1291919E+00  0.5587315E+05 -0.2262459E+00  0.1725628E+00  0.3085814E+01  0.9909598E+06 -0.3171477E+00  0.9476179E+00  0.2320273E+01  0.1131867E+06 -0.3079040E+00  0.4020949E-03 -0.2021679E+00  0.3074143E+04  0.2917935E+01  0.5866063E-03 -0.4265013E+00  0.7477720E+05 -0.3091237E+00  0.5757137E-01 -0.2106963E+01
  0.1520000E+01  0.1615272E+07 -0.3028302E+00  0.4229180E-02  0.2946798E+01  0.4990737E+05 -0.2357577E+00  0.5291020E-01  0.2384691E+00  0.1060253E+07 -0.3088786E+00  0.6434517E+00  0.3104027E+01  0.9774411E+05 -0.2984721E+00  0.1029682E-03 -0.2833316E+01  0.3017718E+04  0.2909757E+01  0.4637487E-02 -0.1309392E+01  0.6447823E+05 -0.2999174E+00  0.1769173E-01 -0.8939325E+00
  0.1560000E+01  0.1510398E+07 -0.2991263E+00  0.4834746E-02  0.3082067E+01  0.4430903E+05 -0.2446202E+00  0.8353423E-01 -0.2953535E+01  0.1117742E+07 -0.3054458E+00  0.9823275E+00  0.2822946E+01  0.8406277E+05 -0.2937978E+00  0.5257046E-03 -0.4671160E-01  0.2944550E+04  0.2898947E+01  0.2795159E-02 -0.2257205E+01  0.5536178E+05 -0.2955539E+00  0.5104287E-01  0.3760628E+00
  0.1600000E+01  0.1413842E+07 -0.2999861E+00  0.3176675E-02 -0.3001328E+01  0.3914319E+05 -0.2528818E+00  0.8869956E-02  0.2536226E+01  0.1164797E+07 -0.3065366E+00  0.5336559E+00  0.2928534E+00  0.7205903E+05 -0.2933152E+00  0.1587079E-03  0.1442208E-01  0.2846887E+04  0.2890325E+01  0.8013264E-02 -0.5989234E+00  0.4737475E+05 -0.2953887E+00  0.9160963E-02 -0.5676172E+00
  0.1640000E+01  0.1325295E+07 -0.3051552E+00  0.6483124E-02 -0.4162066E-01  0.3455846E+05 -0.2607907E+00  0.7025658E-01  0.3115102E+01  0.1203019E+07 -0.3118713E+00  0.1568730E+01 -0.2964832E+01  0.6157507E+05 -0.2965661E+00  0.6094338E-04  0.3084601E+01  0.2731113E+04  0.2883368E+01  0.3096289E-01  0.1211662E-01  0.4040743E+05 -0.2989480E+00  0.2171576E-02 -0.7739083E+00
  0.1680000E+01  0.1244571E+07 -0.3145470E+00  0.5592707E-02  0.3033679E+01  0.3031209E+05 -0.2685298E+00  0.7213372E-02 -0.1349550E+01  0.1233392E+07 -0.3214625E+00  0.3488184E+01 -0.3030308E+01  0.5249004E+05 -0.3035883E+00  0.2029476E-04  0.9348138E+00  0.2604634E+04  0.2877288E+01  0.1166322E-01  0.3046742E+01  0.3437854E+05 -0.3062987E+00  0.3923792E-01  0.2635637E+01
  0.1720000E+01  0.1171435E+07 -0.3278953E+00  0.9439794E-02  0.3191971E-01  0.2654341E+05 -0.2763683E+00  0.5116459E-01  0.1366442E+00  0.1257687E+07 -0.3350285E+00  0.3576978E+00 -0.3051376E+01  0.4465368E+05 -0.3144790E+00  0.1610037E-03 -0.1413861E+00  0.2473416E+04  0.2871175E+01  0.1486519E-01 -0.3032892E+01  0.2918882E+05 -0.3176038E+00  0.2836280E-01 -0.3003698E+01
  0.1760000E+01  0.1105598E+07 -0.3451455E+00  0.4277792E-02  0.3072919E+01  0.2302445E+05 -0.2846878E+00  0.7943188E-02 -0.1418445E+01  0.1277277E+07 -0.3524377E+00  0.2498055E+00 -0.9434381E+00  0.3792382E+05 -0.3291921E+00  0.1988227E-03 -0.2686102E-02  0.2335645E+04  0.2860911E+01  0.2339308E-01 -0.3053692E+01  0.2473829E+05 -0.3328480E+00  0.1535197E-02 -0.2515038E+01
  0.1800000E+01  0.1047341E+07 -0.3659465E+00  0.1472138E-01  0.3463130E-01  0.1974127E+05 -0.2936445E+00  0.1802937E-01  0.1822091E+00  0.1293994E+07 -0.3733584E+00  0.4111304E+01 -0.3076383E+01  0.3220228E+05 -0.3467129E+00  0.1246821E-03 -0.8193433E-01  0.2179782E+04  0.2850688E+01  0.4044086E-02 -0.2738823E+01  0.2096273E+05 -0.3508134E+00  0.2265102E-01  0.1882747E+00
  0.1840000E+01  0.9964615E+06 -0.3898632E+00  0.1615939E-01  0.3095077E+01  0.1714110E+05 -0.3035521E+00  0.2544617E-01  0.3034353E+01  0.1309989E+07 -0.3972842E+00  0.1177766E+01  0.2888664E+01  0.2732310E+05 -0.3664733E+00  0.4325605E-03 -0.4565354E-01  0.2017680E+04  0.2839788E+01  0.1776436E-02 -0.5386388E+00  0.1774741E+05 -0.3709034E+00  0.1498466E-01 -0.6069983E+00
  0.1880000E+01  0.9530859E+06 -0.4160556E+00  0.6169919E-03  0.2366696E+01  0.1464510E+05 -0.3144405E+00  0.1320319E-01 -0.3092466E+01  0.1326788E+07 -0.4234306E+00  0.6013710E+00  0.1164557E+01  0.2321146E+05 -0.3878030E+00  0.2264957E-03  0.8148031E-01  0.1858661E+04  0.2829835E+01  0.2005409E-02  0.2782721E+01  0.1504232E+05 -0.3924465E+00  0.7432826E-02 -0.2782012E+01
  0.1920000E+01  0.9171682E+06 -0.4431468E+00  0.1277576E-01  0.2985357E+01  0.1238875E+05 -0.3264355E+00  0.5641534E-01 -0.1430747E+00  0.1346133E+07 -0.4504017E+00  0.1392496E+01 -0.5457999E+00  0.1976051E+05 -0.4099881E+00  0.5217276E-04  0.2298774E+01  0.1709638E+04  0.2822778E+01  0.1141791E-01  0.2903197E+01  0.1277906E+05 -0.4146793E+00  0.7410888E-02  0.5288358E+00
  0.1960000E+01  0.8881060E+06 -0.4692020E+00  0.1526197E-01  0.8877014E-01  0.1056547E+05 -0.3399743E+00  0.1327928E-01  0.1046531E+00  0.1368969E+07 -0.4762384E+00  0.7247357E+00  0.9608449E+00  0.1686521E+05 -0.4312547E+00  0.8668001E-04  0.2284069E+00  0.1571845E+04  0.2810540E+01  0.9953893E-03 -0.1109660E+01  0.1088339E+05 -0.4359253E+00  0.1455278E-01 -0.2999756E+01
  0.2000000E+01  0.8648649E+06 -0.4920814E+00  0.1527716E-01  0.3053352E+01  0.8960525E+04 -0.3551497E+00  0.2470279E-01 -0.2726733E+01  0.1395206E+07 -0.4988033E+00  0.1434867E+01  0.5035986E+00  0.1441988E+05 -0.4490492E+00  0.1504638E-03 -0.1271066E+00  0.1427808E+04  0.2792470E+01  0.3082727E-02  0.4980690E+00  0.9282923E+04 -0.4534700E+00  0.3376154E-02 -0.2200652E+01
  0.2040000E+01  0.8456194E+06 -0.5098634E+00  0.7424226E-02  0.3341803E+00  0.7613016E+04 -0.3717831E+00  0.5418596E-02  0.8462312E+00  0.1423043E+07 -0.5162154E+00  0.1781643E+01  0.2930514E+01  0.1233257E+05 -0.4608651E+00  0.7432605E-05  0.2880742E+01  0.1284575E+04  0.2770235E+01  0.4172589E-02 -0.1260182E-01  0.7918476E+04 -0.4644704E+00  0.1351998E-01 -0.1959929E+00
  0.2080000E+01  0.8280644E+06 -0.5216564E+00  0.4129979E-02 -0.2900735E+00  0.6354925E+04 -0.3896463E+00  0.5053503E-01  0.3015851E+01  0.1449218E+07 -0.5277110E+00  0.1204087E+01 -0.1442418E+01  0.1053091E+05 -0.4651206E+00  0.4358636E-04 -0.2970976E+01  0.1148676E+04  0.2746115E+01  0.3096087E-02  0.1360762E+01  0.6739141E+04 -0.4676593E+00  0.2553778E-03  0.1421842E+01
  0.2120000E+01  0.8097892E+06 -0.5279247E+00  0.1194257E-02  0.2202728E+00  0.5625228E+04 -0.4081744E+00  0.1000867E-01 -0.5135220E+00  0.1470051E+07 -0.5337266E+00  0.2389448E+01 -0.8986611E-01  0.8952360E+04 -0.4628609E+00  0.5078588E-04  0.2929838E-01  0.1026076E+04  0.2731355E+01  0.7127433E-02 -0.3054653E+01  0.5708660E+04 -0.4639193E+00  0.1277482E-01  0.1554706E+00
  0.2160000E+01  0.7893108E+06 -0.5302261E+00  0.4152579E-02  0.3124822E+01  0.4680650E+04 -0.4267000E+00  0.3052049E-01  0.3129716E+01  0.1482513E+07 -0.5358695E+00  0.1928369E+01  0.2711657E+01  0.7569010E+04 -0.4548039E+00  0.4938312E-04  0.2936812E+01  0.9191108E+03  0.2725669E+01  0.3405767E-02 -0.2843496E+01  0.4809462E+04 -0.4541173E+00  0.1072280E-01 -0.8222213E-01
  0.2200000E+01  0.7659996E+06 -0.5306342E+00  0.3472088E-02  0.3738786E+00  0.3843902E+04 -0.4459337E+00  0.2206084E-01 -0.6001839E-01  0.1485393E+07 -0.5361902E+00  0.8786383E+00  0.1130008E+00  0.6356664E+04 -0.4430404E+00  0.7503520E-05  0.2259432E+01  0.8278997E+03  0.2715353E+01  0.8826946E-03 -0.2547511E+01  0.4023785E+04 -0.4407879E+00  0.7508989E-02  0.3487971E+00
  0.2240000E+01  0.7402762E+06 -0.5312211E+00  0.1041090E-01 -0.3126242E+01  0.3204735E+04 -0.4656765E+00  0.1364268E-01 -0.1827804E-01  0.1479079E+07 -0.5367283E+00  0.1858754E+01  0.7326626E+00  0.5304750E+04 -0.4281159E+00  0.1756029E-04  0.3065487E+01  0.7366601E+03  0.2691439E+01  0.1483236E-02 -0.3122751E+01  0.3343825E+04 -0.4243543E+00  0.8044534E-02 -0.1627192E+00
  0.2280000E+01  0.7129756E+06 -0.5335675E+00  0.2587585E-02 -0.2618550E+01  0.2690403E+04 -0.4843108E+00  0.2634339E-01 -0.1404115E+00  0.1465202E+07 -0.5390645E+00  0.8569238E+00 -0.2472814E+01  0.4396667E+04 -0.4104227E+00  0.2345077E-04  0.3106764E+01  0.6500980E+03  0.2654766E+01  0.1797412E-02 -0.2561417E+01  0.2759540E+04 -0.4042541E+00  0.2267774E-02  0.5778620E+00
  0.2320000E+01  0.6850675E+06 -0.5383112E+00  0.6792095E-02 -0.3127360E+01  0.2486716E+04 -0.5014824E+00  0.3195393E-01 -0.3056522E+01  0.1445577E+07 -0.5438954E+00  0.2159751E+00  0.1599368E+01  0.3625146E+04 -0.3892816E+00  0.3122548E-04  0.3070677E+01  0.5696737E+03  0.2611958E+01  0.3818340E-02 -0.3981599E+00  0.2263345E+04 -0.3803874E+00  0.4667755E-02  0.8564334E-01
  0.2360000E+01  0.6572684E+06 -0.5461114E+00  0.5582384E-02  0.3077444E+01  0.2470198E+04 -0.5151048E+00  0.1722937E-01 -0.3035968E+01  0.1421666E+07 -0.5517737E+00  0.1471746E+01 -0.2345759E+01  0.2987004E+04 -0.3661611E+00  0.7128417E-05 -0.1316564E+00  0.4946175E+03  0.2585225E+01  0.1145141E-02  0.2291986E+01  0.1854750E+04 -0.3541488E+00  0.1270297E-02 -0.1446670E+01
  0.2400000E+01  0.6302909E+06 -0.5571950E+00  0.2347112E-02 -0.3105312E+01  0.1458757E+04 -0.5161859E+00  0.1927075E-02  0.2279647E+01  0.1395809E+07 -0.5629809E+00  0.1093423E+01 -0.2768603E+00  0.2434175E+04 -0.3386966E+00  0.2060318E-04 -0.3122353E+01  0.4252627E+03  0.2599845E+01  0.1348134E-02 -0.2411493E+01  0.1503986E+04 -0.3215351E+00  0.9545051E-03  0.2612868E+00
  0.2440000E+01  0.6045543E+06 -0.5713283E+00  0.6850052E-03  0.8873300E+00  0.1139470E+04 -0.5144358E+00  0.1196314E-02  0.2643410E+01  0.1368875E+07 -0.5771891E+00  0.4364082E+00  0.4019721E+00  0.1988592E+04 -0.3106731E+00  0.1089457E-04 -0.2407262E-02  0.3670788E+03  0.2628405E+01  0.3891524E-02  0.3123330E+01  0.1223908E+04 -0.2884552E+00  0.8370411E-03 -0.1275922E+01
  0.2480000E+01  0.5804074E+06 -0.5884442E+00  0.6663635E-02 -0.1308834E+00  0.1020355E+04 -0.5165299E+00  0.1938900E-01  0.2942431E+01  0.1342021E+07 -0.5944202E+00  0.1985133E+01  0.1268596E+01  0.1625703E+04 -0.2762198E+00  0.3979464E-05 -0.3130209E+01  0.3200186E+03  0.2644676E+01  0.1312842E-02 -0.2988572E+01  0.9976297E+03 -0.2488917E+00  0.1313347E-02 -0.2078863E+00
  0.2520000E+01  0.5581583E+06 -0.6082078E+00  0.3119947E-02 -0.3044538E+01  0.7125314E+03 -0.5052839E+00  0.7279127E-02  0.2817498E+01  0.1316362E+07 -0.6142440E+00  0.1011047E+01  0.1436320E+01  0.1329974E+04 -0.2349951E+00  0.3081369E-05  0.1533068E+01  0.2759330E+03  0.2623403E+01  0.1335004E-02  0.3073047E+01  0.8148048E+03 -0.2016063E+00  0.1256555E-02  0.2822114E+01
  0.2560000E+01  0.5379626E+06 -0.6302965E+00  0.1173542E-02 -0.1307260E+01  0.6521575E+03 -0.5118985E+00  0.1321104E-02  0.1664543E+01  0.1292777E+07 -0.6362817E+00  0.1606169E+01 -0.1228105E+01  0.1089156E+04 -0.1855757E+00  0.1011831E-05 -0.1062336E+00  0.2394090E+03  0.2558661E+01  0.1736102E-02  0.2495302E-01  0.6672806E+03 -0.1431547E+00  0.1196100E-02 -0.2184577E+01
  0.2600000E+01  0.5200610E+06 -0.6537237E+00  0.7098010E-02  0.3096854E+01  0.8054772E+03 -0.5414977E+00  0.6192209E-02 -0.2787166E+01  0.1272028E+07 -0.6597745E+00  0.1645551E+01  0.2190332E+00  0.9000986E+03 -0.1237370E+00  0.6511995E-06 -0.2989987E+01  0.2086587E+03  0.2461396E+01  0.5481324E-03 -0.4993403E+00  0.5508158E+03 -0.7264668E-01  0.4458725E-03 -0.1344363E-01
  0.2640000E+01  0.5042872E+06 -0.6778657E+00  0.3544840E-02 -0.2814513E+00  0.4996451E+03 -0.5043697E+00  0.2613944E-01  0.2970293E+01  0.1254406E+07 -0.6838648E+00  0.2158217E+01  0.2592031E+01  0.7428880E+03 -0.4847053E-01  0.8433528E-07 -0.1977718E+01  0.1781145E+03  0.2390324E+01  0.2944788E-04 -0.1984409E+01  0.4542905E+03  0.1282579E-01  0.1155230E-02  0.2822045E+01
  0.2680000E+01  0.4905430E+06 -0.7014107E+00  0.6571534E-02  0.1999103E+00  0.2757778E+03 -0.3837925E+00  0.5849560E-02 -0.3398197E-01  0.1239824E+07 -0.7073065E+00  0.1165557E+01  0.2167929E+01  0.6195277E+03  0.3201888E-01  0.5333546E-06 -0.2849003E+00  0.1391686E+03  0.2400268E+01  0.4334940E-03 -0.2557930E+01  0.3805783E+03  0.1060214E+00  0.3971428E-03 -0.2509893E+01
  0.2720000E+01  0.4783589E+06 -0.7233085E+00  0.2096719E-02 -0.3089912E+01  0.3533201E+03 -0.4261642E+00  0.8752100E-02  0.3525468E+00  0.1227354E+07 -0.7290817E+00  0.1440066E+01 -0.2699633E+01  0.5237973E+03  0.1183748E+00  0.9817608E-06  0.9302335E-01  0.1041056E+03  0.2497353E+01  0.4187184E-03 -0.9800700E-03  0.3250150E+03  0.2037715E+00  0.5394983E-03 -0.4286011E+00
  0.2760000E+01  0.4670686E+06 -0.7427835E+00  0.9513705E-02  0.3091416E+01  0.9638039E+02  0.6041687E+00  0.1189414E-01 -0.2263952E+00  0.1215673E+07 -0.7484277E+00  0.1405554E+01 -0.7561702E+00  0.4485598E+03  0.2128154E+00  0.4017727E-05 -0.2959145E+01  0.8376281E+02  0.2633591E+01  0.3035099E-03  0.6467460E+00  0.2819243E+03  0.3046484E+00  0.6931269E-03 -0.3010499E+01
  0.2800000E+01  0.4559452E+06 -0.7600070E+00  0.4181453E-02  0.3093425E+01  0.1230014E+03  0.2156053E+00  0.8829204E-02 -0.2861036E+01  0.1202866E+07 -0.7655098E+00  0.1182719E+01 -0.1959223E+01  0.3903494E+03  0.3133633E+00  0.1421156E-05  0.2727201E+01  0.6919842E+02  0.2729448E+01  0.2626808E-04 -0.8289887E+00  0.2488673E+03  0.4054867E+00  0.5313244E-03 -0.5998108E+00
  0.2840000E+01  0.4446754E+06 -0.7751951E+00  0.2341295E-02  0.5359234E+00  0.2321592E+03 -0.2652149E+00  0.3137508E-01 -0.3049981E+01  0.1188270E+07 -0.7806779E+00  0.1717145E+00  0.1290650E+01  0.3493166E+03  0.4168755E+00  0.1163807E-05  0.6823324E-01  0.5892712E+02  0.2692823E+01  0.3145231E-03  0.2340395E+00  0.2264818E+03  0.5057542E+00  0.4534200E-03  0.1682328E+01
  0.2880000E+01  0.4328530E+06 -0.7899290E+00  0.2543524E-02 -0.2865825E+01  0.1078030E+03  0.1179216E+01  0.1006642E-01 -0.2323626E-01  0.1170804E+07 -0.7952024E+00  0.2940241E+00  0.3309287E+00  0.3168505E+03  0.5135733E+00  0.7692695E-06 -0.8962973E+00  0.6010141E+02  0.2419785E+01  0.1423014E-03 -0.5833722E+00  0.2083967E+03  0.5988143E+00  0.2126576E-03 -0.1843582E+01
  0.2920000E+01  0.4205775E+06 -0.8049591E+00  0.2841371E-02 -0.3058334E+01  0.1590383E+03  0.1671543E+01  0.1692010E-02  0.5577596E+00  0.1150824E+07 -0.8102378E+00  0.2605901E+00  0.4680945E-01  0.2941185E+03  0.6172839E+00  0.3747969E-06 -0.6690285E+00  0.6655708E+02  0.2186829E+01  0.2749430E-03  0.1343856E+01  0.1942160E+03  0.6956258E+00  0.2667985E-03 -0.5845258E+00
  0.2960000E+01  0.4080274E+06 -0.8213013E+00  0.4819043E-02 -0.3048393E+01  0.2291539E+03  0.1861797E+01  0.2712874E-02  0.3020452E+01  0.1128949E+07 -0.8264743E+00  0.1758254E+00 -0.2177632E+01  0.2723592E+03  0.7143819E+00  0.1642131E-05 -0.1209838E+01  0.6655306E+02  0.2063833E+01  0.3163861E-03  0.1651300E+01  0.1798819E+03  0.7867401E+00  0.5464285E-03 -0.2001393E+01
  0.3000000E+01  0.3955495E+06 -0.8394082E+00  0.1050693E-01  0.3134537E+01  0.2957075E+03  0.1934482E+01  0.7952632E-02  0.3092308E+01  0.1106046E+07 -0.8444287E+00  0.1170307E+00  0.4821002E+00  0.2505612E+03  0.7937817E+00  0.2380282E-05  0.1772489E+01  0.4934467E+02  0.2022635E+01  0.1074727E-03 -0.2582613E+01  0.1659760E+03  0.8628241E+00  0.8185189E-04 -0.2958521E+01
  0.3040000E+01  0.3833456E+06 -0.8595802E+00  0.2982717E-02  0.1195215E-01  0.2248281E+03 -0.2693065E+00  0.4229804E-01 -0.3093320E+01  0.1082833E+07 -0.8644600E+00  0.4180759E+00 -0.1247880E+01  0.2299006E+03  0.8587683E+00  0.2396577E-05 -0.1645149E+00  0.2139166E+02  0.2114447E+01  0.1575620E-03  0.5339232E+00  0.1531019E+03  0.9236112E+00  0.1709377E-03  0.2383731E+01
  0.3080000E+01  0.3718000E+06 -0.8815514E+00  0.6195406E-03  0.1243123E+00  0.2366104E+03  0.1706169E+01  0.1354837E-01  0.4637134E-01  0.1060289E+07 -0.8863173E+00  0.2212105E+00  0.2784122E+01  0.2124796E+03  0.9151880E+00  0.1644429E-05  0.1045553E+01  0.7604467E+01  0.3127842E+01  0.2963099E-04  0.3065398E+01  0.1418791E+03  0.9737594E+00  0.3102179E-03  0.1339904E+01
  0.3120000E+01  0.3609441E+06 -0.9052912E+00  0.2612550E-02  0.3049289E+01  0.7340276E+03  0.2083039E+01  0.8328965E-02  0.3031583E+01  0.1038874E+07 -0.9098976E+00  0.2318082E+01 -0.1521544E+01  0.1969247E+03  0.9707115E+00  0.5329172E-05 -0.1356313E+01  0.1481619E+02 -0.1939278E+01  0.4502784E-04  0.1626740E+01  0.1319759E+03  0.1020124E+01  0.3237345E-03  0.7659547E+00