VARIABLES="Frequency (rad/s)" "|Fx| (N/m)" "|Fy| (N/m)" "|Fz| (N/m)" "|Cx| (N)" "|Cy| (N)" "|Cz| (N)" "ang(Fx) (°)" "ang(Fy) (°)" "ang(Fz) (°)" "ang(Cx) (°)" "ang(Cy) (°)" "ang(Cz) (°)"
Zone t="Corps  1"
Zone t="Excitation force - beta =   0.000 deg",I=   500,F=POINT
 0.0400  0.118982E+06  0.704867E-01  0.317454E+06  0.119711E+00  0.912675E+05  0.160892E+00 *******    0.00    5.44    0.01 *******    0.02
  -89.96 -179.94   -0.01  179.73   90.03  107.15
  -89.96    0.32  179.70    0.25  -89.96  -82.37
 0.0800  0.237297E+06  0.132282E-01  0.316399E+06  0.311361E+00  0.182638E+06  0.573630E+00 *******    0.00   21.76    0.11 *******    0.06
  -89.85    0.37   -0.03 -179.54   90.15   95.49
  -89.86  176.64  179.75   -0.06  -89.86 -105.37
 0.1200  0.357695E+06  0.323068E-01  0.314668E+06  0.358973E-01  0.274128E+06  0.152369E+01 *******    0.00   48.61    0.00 *******    0.03
  -89.67 -179.47   -0.06  166.10   90.33   82.81
  -89.67   -0.08  179.81 -179.94  -89.67  124.85
 0.1600  0.479771E+06  0.664852E-03  0.312329E+06  0.214711E+00  0.365517E+06  0.161452E+01 *******    0.00   85.91    0.03 *******    0.02
  -89.41  118.09   -0.11  179.58   90.59  -89.06
  -89.41  179.94  179.78    0.67  -89.41 -142.90
 0.2000  0.603993E+06  0.839268E-01  0.309383E+06  0.840348E-02  0.456522E+06  0.355981E+00 *******    0.00  133.90    0.00 *******    0.09
  -89.07   -0.32   -0.18 -171.72   90.93  173.40
  -89.07 -177.25  179.73  169.54  -89.07  -90.69
 0.2400  0.730551E+06  0.130378E-01  0.305851E+06  0.332358E-01  0.546727E+06  0.360100E+00 *******    0.00  192.42    0.15 *******    0.11
  -88.63  179.86   -0.25  -13.93   91.37 -110.35
  -88.63    5.45  179.68    0.21  -88.63   91.36
 0.2800  0.859689E+06  0.434654E-01  0.301754E+06  0.235003E+00  0.635718E+06  0.170342E+00 *******    0.00  260.16    0.04 *******    0.10
  -88.10 -179.86   -0.35 -179.83   91.90  151.71
  -88.10   -1.28  179.56 -178.44  -88.10  -87.63
 0.3200  0.991578E+06  0.738899E-01  0.297108E+06  0.295791E+00  0.722968E+06  0.214828E+01 *******    0.00  337.50    0.01 *******    0.07
  -87.47    0.38   -0.45   -2.26   92.53  -85.13
  -87.47  166.93  179.47 -170.14  -87.47  107.89
 0.3600  0.112639E+07  0.629036E-01  0.291933E+06  0.324849E+00  0.807796E+06  0.157857E+00 *******    0.00  424.09    0.02 *******    0.10
  -86.73   -0.03   -0.58 -178.44   93.27   84.09
  -86.73  179.58  179.37    0.98  -86.73 -115.10
 0.4000  0.126419E+07  0.135676E-01  0.286248E+06  0.252622E-01  0.889561E+06  0.194376E+01 *******    0.00  519.22    0.04 *******    0.03
  -85.86 -175.73   -0.72 -159.91   94.14  -85.71
  -85.86   -0.36  179.22  176.74  -85.86  153.08
 0.4400  0.140501E+07  0.751440E-01  0.280064E+06  0.427670E-01  0.967290E+06  0.121420E+00 *******    0.00  622.18    0.03 *******    0.04
  -84.85   -0.48   -0.88   -0.97   95.15   38.58
  -84.85   -0.09  179.06 -177.48  -84.85  -79.60
 0.4800  0.154874E+07  0.256744E-01  0.273414E+06  0.238177E+00  0.104006E+07  0.727642E+00 *******    0.00  733.10    0.06 *******    0.16
  -83.69   -6.90   -1.05   -4.21   96.31  -88.41
  -83.69  177.39  178.89    2.21  -83.69   80.11
 0.5200  0.169514E+07  0.319566E-01  0.266319E+06  0.226981E+00  0.110674E+07  0.145629E+01 *******    0.00  850.73    0.05 *******    0.08
  -82.36   -1.57   -1.24    2.21   97.64  -82.00
  -82.36 -179.75  178.70  179.76  -82.36   69.81
 0.5600  0.184363E+07  0.684253E-01  0.258806E+06  0.265743E-01  0.116573E+07  0.988701E+00 *******    0.00  974.24    0.09 *******    0.04
  -80.85  179.38   -1.46  170.21   99.15  134.59
  -80.85  175.70  178.49 -179.58  -80.85  -15.50
 0.6000  0.199355E+07  0.105362E-01  0.250896E+06  0.112274E+00  0.121559E+07  0.387192E+01 *******    0.00 1103.66    0.14 *******    0.05
  -79.14  177.59   -1.69 -171.72  100.86   92.21
  -79.14    3.05  178.26 -179.44  -79.14   14.76
 0.6400  0.214372E+07  0.151418E-01  0.242599E+06  0.227580E+00  0.125435E+07  0.163600E+01 *******    0.00 1237.43    0.05 *******    0.14
  -77.20 -177.04   -1.94 -175.74  102.80 -148.94
  -77.20  159.56  178.01   -0.44  -77.20  -45.33
 0.6800  0.229269E+07  0.118901E-01  0.233996E+06  0.998647E-01  0.128006E+07  0.115795E+01 *******    0.00 1375.85    0.16 *******    0.09
  -75.03   -6.71   -2.22   -3.88  104.97  -81.43
  -75.03   -0.99  177.73 -179.36  -75.03 -123.81
 0.7200  0.243807E+07  0.467935E-02  0.225080E+06  0.141734E+00  0.129024E+07  0.136001E+01 *******    0.00 1516.77    0.03 *******    0.22
  -72.60  126.60   -2.52 -159.82  107.41   94.42
  -72.60   -0.89  177.43   -1.62  -72.60  -96.93
 0.7600  0.257784E+07  0.271989E-01  0.215900E+06  0.485226E-01  0.128246E+07  0.124475E+01 *******    0.00 1659.26    0.00 *******    0.20
  -69.89 -174.27   -2.84 -170.36  110.12  118.39
  -69.89 -131.78  177.10  120.32  -69.89   63.92
 0.8000  0.270575E+07  0.229342E-01  0.206454E+06  0.571971E-01  0.125435E+07  0.578831E+01 *******    0.00 1802.76    0.05 *******    0.26
  -66.92  176.31   -3.20 -148.15  113.09   52.25
  -66.92  174.66  176.75 -179.24  -66.92  122.93
 0.8400  0.282019E+07  0.733517E-02  0.196837E+06  0.110633E+00  0.120371E+07  0.117563E+01 *******    0.00 1945.89    0.03 *******    0.26
  -63.68  169.94   -3.58  176.50  116.33  -70.15
  -63.68  177.57  176.38 -178.86  -63.68  114.54
 0.8800  0.291554E+07  0.304460E-02  0.187080E+06  0.220714E-01  0.112919E+07  0.363659E+01 *******    0.00 2086.36    0.05 *******    0.05
  -60.19  132.07   -3.99  -99.20  119.83 -108.19
  -60.19  -58.19  175.97   -0.71  -60.19   14.30
 0.9200  0.298694E+07  0.142977E-01  0.177213E+06  0.182275E+00  0.102995E+07  0.589368E+01 *******    0.00 2223.17    0.10 *******    0.18
  -56.48    9.10   -4.43   20.89  123.54  -90.27
  -56.48  177.87  175.53    0.49  -56.48   45.74
 0.9600  0.303023E+07  0.194349E-01  0.167280E+06  0.285739E+00  0.906800E+06  0.710218E+01 *******    0.00 2357.66    0.01 *******    0.20
  -52.62  177.46   -4.90   10.43  127.42  119.49
  -52.61    8.08  175.07    1.77  -52.62 -121.93
 1.0000  0.304231E+07  0.231261E-02  0.157294E+06  0.320008E-01  0.762281E+06  0.135656E+01 *******    0.00 2486.28    0.01 *******    0.12
  -48.66 -115.16   -5.40 -125.62  131.40  -38.52
  -48.65 -176.00  174.58   -8.24  -48.66  -91.28
 1.0400  0.302205E+07  0.433671E-02  0.147439E+06  0.206303E+00  0.600479E+06  0.744049E+01 *******    0.00 2604.72    0.01 *******    0.51
  -44.69 -125.91   -5.94  160.29  135.40  -44.03
  -44.69  179.69  174.03  166.17  -44.69  166.65
 1.0800  0.297048E+07  0.223497E-02  0.137684E+06  0.184118E+00  0.426204E+06  0.490452E+01 *******    0.00 2714.84    0.01 *******    0.39
  -40.80   16.84   -6.51  174.98  139.36 -136.88
  -40.79 -172.29  173.46  154.18  -40.80  105.19
 1.1200  0.289064E+07  0.976523E-03  0.128050E+06  0.117513E+00  0.245452E+06  0.366965E+01 *******    0.00 2817.20    0.00 *******    0.05
  -37.08 -141.24   -7.11  164.34  143.26  142.29
  -37.06 -178.79  172.89 -126.85  -37.08   65.53
 1.1600  0.278717E+07  0.212026E-01  0.118683E+06  0.704333E-01  0.644112E+05  0.161784E+01 *******    0.00 2908.72    0.04 *******    0.05
  -33.59   -3.65   -7.74 -157.80  147.97   45.67
  -33.58  178.92  172.30    1.13  -33.59  -73.09
 1.2000  0.266611E+07  0.241334E-01  0.109566E+06  0.119396E+00  0.112063E+06  0.596826E+01 *******    0.00 2984.39    0.00 *******    0.08
  -30.40 -178.00   -8.39 -147.40  -31.52  146.18
  -30.37  -12.76  171.60 -129.06  -30.39 -107.91
 1.2400  0.253305E+07  0.143101E-01  0.100764E+06  0.515731E-01  0.279422E+06  0.165446E+01 *******    0.00 3045.78    0.01 *******    0.44
  -27.54 -168.17   -9.06   -1.82  -28.08  -51.62
  -27.51   -5.65  170.92  -21.27  -27.53  173.55
 1.2800  0.239356E+07  0.420285E-01  0.922777E+05  0.108072E+00  0.434696E+06  0.270793E+01 *******    0.00 3094.04    0.01 *******    0.16
  -25.04  176.94   -9.75  -15.73  -25.44  -36.45
  -24.99   25.51  170.29  -15.90  -25.02  -60.83
 1.3200  0.225230E+07  0.186588E-02  0.840432E+05  0.332105E-01  0.575681E+06  0.522894E+01 *******    0.00 3127.13    0.01 *******    0.14
  -22.91   90.52  -10.43   56.13  -23.25  172.65
  -22.84 -179.72  169.67  -21.67  -22.87  175.68
 1.3600  0.211288E+07  0.237355E-01  0.763147E+05  0.446320E-01  0.701753E+06  0.348644E+01 *******    0.00 3143.47    0.00 *******    0.06
  -21.13   -3.01  -11.10   37.95  -21.47  149.12
  -21.05 -167.81  168.97   45.26  -21.09 -139.98
 1.4000  0.197797E+07  0.190687E-01  0.690314E+05  0.188425E-01  0.812539E+06  0.397342E+01 *******    0.00 3138.79    0.03 *******    0.03
  -19.71  175.60  -11.75  146.23  -20.04  -10.10
  -19.60 -149.39  168.26  -13.78  -19.65  -89.36
 1.4400  0.184942E+07  0.156192E-01  0.621668E+05  0.205145E-01  0.908625E+06  0.214792E+01 *******    0.00 3115.35    0.00 *******    0.08
  -18.62 -173.14  -12.38   53.04  -18.95   20.63
  -18.47    4.88  167.69  161.48  -18.53    4.92
 1.4800  0.172827E+07  0.110814E-01  0.558731E+05  0.172563E+00  0.990960E+06  0.947618E+00 *******    0.00 3074.14    0.00 *******    0.06
  -17.84    7.40  -12.96  176.80  -18.17  132.94
  -17.64  -11.58  167.19  -24.44  -17.71 -120.72
 1.5200  0.161527E+07  0.422918E-02  0.499074E+05  0.529102E-01  0.106025E+07  0.643452E+00 *******    0.00 3017.72    0.00 *******    0.02
  -17.35  168.84  -13.51   13.66  -17.70  177.85
  -17.10 -162.34  166.72  -75.02  -17.18  -51.22
 1.5600  0.151040E+07  0.483475E-02  0.443090E+05  0.835342E-01  0.111774E+07  0.982328E+00 *******    0.00 2944.55    0.00 *******    0.05
  -17.14  176.59  -14.02 -169.23  -17.50  161.74
  -16.83   -2.68  166.10 -129.33  -16.93   21.55
 1.6000  0.141384E+07  0.317667E-02  0.391432E+05  0.886996E-02  0.116480E+07  0.533656E+00 *******    0.00 2846.89    0.01 *******    0.01
  -17.19 -171.96  -14.49  145.32  -17.56   16.78
  -16.81    0.83  165.60  -34.32  -16.92  -32.52
 1.6400  0.132530E+07  0.648312E-02  0.345585E+05  0.702566E-01  0.120302E+07  0.156873E+01 *******    0.00 2731.11    0.03 *******    0.00
  -17.48   -2.38  -14.94  178.48  -17.87 -169.87
  -16.99  176.73  165.20    0.69  -17.13  -44.34
 1.6800  0.124457E+07  0.559271E-02  0.303121E+05  0.721337E-02  0.123339E+07  0.348818E+01 *******    0.00 2604.63    0.01 *******    0.04
  -18.02  173.82  -15.39  -77.32  -18.42 -173.62
  -17.39   53.56  164.86  174.57  -17.55  151.01
 1.7200  0.117143E+07  0.943979E-02  0.265434E+05  0.511646E-01  0.125769E+07  0.357698E+00 *******    0.00 2473.42    0.01 *******    0.03
  -18.79    1.83  -15.83    7.83  -19.20 -174.83
  -18.02   -8.10  164.51 -173.77  -18.20 -172.10
 1.7600  0.110560E+07  0.427779E-02  0.230245E+05  0.794319E-02  0.127728E+07  0.249806E+00 *******    0.00 2335.64    0.02 *******    0.00
  -19.78  176.07  -16.31  -81.27  -20.19  -54.06
  -18.86   -0.15  163.92 -174.96  -19.07 -144.10
 1.8000  0.104734E+07  0.147214E-01  0.197413E+05  0.180294E-01  0.129399E+07  0.411130E+01 *******    0.00 2179.78    0.00 *******    0.02
  -20.97    1.98  -16.82   10.44  -21.39 -176.26
  -19.87   -4.69  163.33 -156.92  -20.10   10.79
 1.8400  0.996462E+06  0.161594E-01  0.171411E+05  0.254462E-01  0.130999E+07  0.117777E+01 *******    0.00 2017.68    0.00 *******    0.01
  -22.34  177.33  -17.39  173.86  -22.76  165.51
  -21.00   -2.62  162.71  -30.86  -21.25  -34.78
 1.8800  0.953086E+06  0.616992E-03  0.146451E+05  0.132032E-01  0.132679E+07  0.601371E+00 *******    0.00 1858.66    0.00 *******    0.01
  -23.84  135.60  -18.02 -177.19  -24.26   66.72
  -22.22    4.67  162.14  159.44  -22.49 -159.40
 1.9200  0.917168E+06  0.127758E-01  0.123888E+05  0.564153E-01  0.134613E+07  0.139250E+01 *******    0.00 1709.64    0.01 *******    0.01
  -25.39  171.05  -18.70   -8.20  -25.81  -31.27
  -23.49  131.71  161.73  166.34  -23.76   30.30
 1.9600  0.888106E+06  0.152620E-01  0.105655E+05  0.132793E-01  0.136897E+07  0.724736E+00 *******    0.00 1571.84    0.00 *******    0.01
  -26.88    5.09  -19.48    6.00  -27.29   55.05
  -24.71   13.09  161.03  -63.58  -24.98 -171.87
 2.0000  0.864865E+06  0.152772E-01  0.896053E+04  0.247028E-01  0.139521E+07  0.143487E+01 *******    0.00 1427.81    0.00 9282.92    0.00
  -28.19  174.94  -20.35 -156.23  -28.58   28.85
  -25.73   -7.28  160.00   28.54  -25.98 -126.09
 2.0400  0.845619E+06  0.742423E-02  0.761302E+04  0.541860E-02  0.142304E+07  0.178164E+01 *******    0.00 1284.58    0.00 7918.48    0.01
  -29.21   19.15  -21.30   48.49  -29.58  167.91
  -26.41  165.05  158.72   -0.72  -26.61  -11.23
 2.0800  0.828064E+06  0.412998E-02  0.635492E+04  0.505350E-01  0.144922E+07  0.120409E+01 *******    0.00 1148.68    0.00 6739.14    0.00
  -29.89  -16.62  -22.33  172.80  -30.24  -82.64
  -26.65 -170.22  157.34   77.97  -26.79   81.47
 2.1200  0.809789E+06  0.119426E-02  0.562523E+04  0.100087E-01  0.147005E+07  0.238945E+01 8952.36    0.00 1026.08    0.01 5708.66    0.01
  -30.25   12.62  -23.39  -29.42  -30.58   -5.15
  -26.52    1.68  156.50 -175.02  -26.58    8.91
 2.1600  0.789311E+06  0.415258E-02  0.468065E+04  0.305205E-01  0.148251E+07  0.192837E+01 7569.01    0.00  919.11    0.00 4809.46    0.01
  -30.38  179.04  -24.45  179.32  -30.70  155.37
  -26.06  168.27  156.17 -162.92  -26.02   -4.71
 2.2000  0.766000E+06  0.347209E-02  0.384390E+04  0.220608E-01  0.148539E+07  0.878638E+00 6356.66    0.00  827.90    0.00 4023.79    0.01
  -30.40   21.42  -25.55   -3.44  -30.72    6.47
  -25.38  129.46  155.58 -145.96  -25.26   19.98
 2.2400  0.740276E+06  0.104109E-01  0.320474E+04  0.136427E-01  0.147908E+07  0.185875E+01 5304.75    0.00  736.66    0.00 3343.82    0.01
  -30.44 -179.12  -26.68   -1.05  -30.75   41.98
  -24.53  175.64  154.21 -178.92  -24.31   -9.32
 2.2800  0.712976E+06  0.258758E-02  0.269040E+04  0.263434E-01  0.146520E+07  0.856924E+00 4396.67    0.00  650.10    0.00 2759.54    0.00
  -30.57 -150.03  -27.75   -8.04  -30.89 -141.68
  -23.52  178.00  152.11 -146.76  -23.16   33.11
 2.3200  0.685068E+06  0.679210E-02  0.248672E+04  0.319539E-01  0.144558E+07  0.215975E+00 3625.15    0.00  569.67    0.00 2263.35    0.00
  -30.84 -179.18  -28.73 -175.13  -31.16   91.64
  -22.30  175.94  149.65  -22.81  -21.79    4.91
 2.3600  0.657268E+06  0.558238E-02  0.247020E+04  0.172294E-01  0.142167E+07  0.147175E+01 2987.00    0.00  494.62    0.00 1854.75    0.00
  -31.29  176.32  -29.51 -173.95  -31.61 -134.40
  -20.98   -7.54  148.12  131.32  -20.29  -82.89
 2.4000  0.630291E+06  0.234711E-02  0.145876E+04  0.192707E-02  0.139581E+07  0.109342E+01 2434.17    0.00  425.26    0.00 1503.99    0.00
  -31.92 -177.92  -29.58  130.61  -32.26  -15.86
  -19.41 -178.90  148.96 -138.17  -18.42   14.97
 2.4400  0.604554E+06  0.685005E-03  0.113947E+04  0.119631E-02  0.136887E+07  0.436408E+00 1988.59    0.00  367.08    0.00 1223.91    0.00
  -32.73   50.84  -29.47  151.46  -33.07   23.03
  -17.80   -0.14  150.60  178.95  -16.53  -73.10
 2.4800  0.580407E+06  0.666364E-02  0.102036E+04  0.193890E-01  0.134202E+07  0.198513E+01 1625.70    0.00  320.02    0.00  997.63    0.00
  -33.72   -7.50  -29.59  168.59  -34.06   72.69
  -15.83 -179.35  151.53 -171.23  -14.26  -11.91
 2.5200  0.558158E+06  0.311995E-02  0.712531E+03  0.727913E-02  0.131636E+07  0.101105E+01 1329.97    0.00  275.93    0.00  814.80    0.00
  -34.85 -174.44  -28.95  161.43  -35.19   82.30
  -13.46   87.84  150.31  176.07  -11.55  161.70
 2.5600  0.537963E+06  0.117354E-02  0.652157E+03  0.132110E-02  0.129278E+07  0.160617E+01 1089.16    0.00  239.41    0.00  667.28    0.00
  -36.11  -74.90  -29.33   95.37  -36.46  -70.37
  -10.63   -6.09  146.60    1.43   -8.20 -125.17
 2.6000  0.520061E+06  0.709801E-02  0.805477E+03  0.619221E-02  0.127203E+07  0.164555E+01  900.10    0.00  208.66    0.00  550.82    0.00
  -37.46  177.44  -31.03 -159.69  -37.80   12.55
   -7.09 -171.31  141.03  -28.61   -4.16   -0.77
 2.6400  0.504287E+06  0.354484E-02  0.499645E+03  0.261394E-01  0.125441E+07  0.215822E+01  742.89    0.00  178.11    0.00  454.29    0.00
  -38.84  -16.13  -28.90  170.19  -39.18  148.51
   -2.78 -113.31  136.96 -113.70    0.73  161.69
 2.6800  0.490543E+06  0.657153E-02  0.275778E+03  0.584956E-02  0.123982E+07  0.116556E+01  619.53    0.00  139.17    0.00  380.58    0.00
  -40.19   11.45  -21.99   -1.95  -40.53  124.21
    1.83  -16.32  137.53 -146.56    6.07 -143.81
 2.7200  0.478359E+06  0.209672E-02  0.353320E+03  0.875210E-02  0.122735E+07  0.144007E+01  523.80    0.00  104.11    0.00  325.02    0.00
  -41.44 -177.04  -24.42   20.20  -41.77 -154.68
    6.78    5.33  143.09   -0.06   11.68  -24.56
 2.7600  0.467069E+06  0.951371E-02  0.963804E+02  0.118941E-01  0.121567E+07  0.140555E+01  448.56    0.00   83.76    0.00  281.92    0.00
  -42.56  177.13   34.62  -12.97  -42.88  -43.33
   12.19 -169.55  150.89   37.06   17.46 -172.49
 2.8000  0.455945E+06  0.418145E-02  0.123001E+03  0.882920E-02  0.120287E+07  0.118272E+01  390.35    0.00   69.20    0.00  248.87    0.00
  -43.55  177.24   12.35 -163.93  -43.86 -112.26
   17.95  156.26  156.39  -47.50   23.23  -34.37
 2.8400  0.444675E+06  0.234130E-02  0.232159E+03  0.313751E-01  0.118827E+07  0.171714E+00  349.32    0.00   58.93    0.00  226.48    0.00
  -44.42   30.71  -15.20 -174.75  -44.73   73.95
   23.89    3.91  154.29   13.41   28.98   96.39
 2.8800  0.432853E+06  0.254352E-02  0.107803E+03  0.100664E-01  0.117080E+07  0.294024E+00  316.85    0.00   60.10    0.00  208.40    0.00
  -45.26 -164.20   67.56   -1.33  -45.56   18.96
   29.43  -51.35  138.64  -33.42   34.31 -105.63
 2.9200  0.420578E+06  0.284137E-02  0.159038E+03  0.169201E-02  0.115082E+07  0.260590E+00  294.12    0.00   66.56    0.00  194.22    0.00
  -46.12 -175.23   95.77   31.96  -46.42    2.68
   35.37  -38.33  125.30   77.00   39.86  -33.49
 2.9600  0.408027E+06  0.481904E-02  0.229154E+03  0.271287E-02  0.112895E+07  0.175825E+00  272.36    0.00   66.55    0.00  179.88    0.00
  -47.06 -174.66  106.67  173.06  -47.35 -124.77
   40.93  -69.32  118.25   94.61   45.08 -114.67
 3.0000  0.395550E+06  0.105069E-01  0.295707E+03  0.795263E-02  0.110605E+07  0.117031E+00  250.56    0.00   49.34    0.00  165.98    0.00
  -48.09  179.60  110.84  177.18  -48.38   27.62
   45.48  101.56  115.89 -147.97   49.44 -169.51
 3.0400  0.383346E+06  0.298272E-02  0.224828E+03  0.422980E-01  0.108283E+07  0.418076E+00  229.90    0.00   21.39    0.00  153.10    0.00
  -49.25    0.68  -15.43 -177.23  -49.53  -71.50
   49.20   -9.43  121.15   30.59   52.92  136.58
 3.0800  0.371800E+06  0.619541E-03  0.236610E+03  0.135484E-01  0.106029E+07  0.221211E+00  212.48    0.00    7.60    0.00  141.88    0.00
  -50.51    7.12   97.76    2.66  -50.78  159.52
   52.44   59.91  179.21  175.63   55.79   76.77
 3.1200  0.360944E+06  0.261255E-02  0.734028E+03  0.832896E-02  0.103887E+07  0.231808E+01  196.92    0.00   14.82    0.00  131.98    0.00
  -51.87  174.71  119.35  173.70  -52.13  -87.18
   55.62  -77.71 -111.11   93.21   58.45   43.89
 3.1600  0.350979E+06  0.464316E-02  0.569349E+03  0.457947E-02  0.101908E+07  0.664799E+00  181.51    0.00   21.85    0.00  122.26    0.00
  -53.30 -173.50  114.74  168.26  -53.55 -138.51
   58.31   66.95  -98.53  -56.00   60.55  -35.83
 3.2000  0.341904E+06  0.226092E-02  0.149503E+03  0.184519E-01  0.100107E+07  0.693596E+00  170.07    0.00   20.78    0.00  115.61    0.00
  -54.76 -169.41   26.23  178.92  -55.00 -115.24
   60.70 -121.31 -102.92    2.66   62.48 -102.85
 3.2400  0.333637E+06  0.380580E-02  0.339818E+03  0.895973E-03  0.984717E+06  0.581408E+00  160.57    0.00   13.87    0.00  108.68    0.00
  -56.21 -167.20  102.82  -11.03  -56.44 -120.53
   63.13   60.13  145.43  -70.78   64.66   97.85
 3.2800  0.325996E+06  0.693145E-03  0.578733E+03  0.267485E-01  0.969518E+06  0.967591E-01  151.05    0.00   31.80    0.00  101.29    0.00
  -57.61    1.91  111.86 -179.06  -57.83  109.56
   64.70  114.66  121.26  100.31   66.07 -127.46
 3.3200  0.318692E+06  0.486582E-02  0.684007E+03  0.434389E-02  0.954743E+06  0.185683E+00  139.73    0.00   39.86    0.00   92.71    0.00
  -58.96 -179.99  112.61 -173.91  -59.17    3.96
   66.31  -34.54  116.68    0.13   67.59  -90.02
 3.3600  0.311503E+06  0.423412E-03  0.371917E+03  0.864309E-02  0.939714E+06  0.366590E+00  126.68    0.00   31.94    0.00   83.46    0.00
  -60.26 -136.85  101.08   -5.87  -60.45  -86.70
   67.44   82.45  114.82  -73.44   68.75  -74.64
 3.4000  0.304286E+06  0.164219E-02  0.145816E+03  0.197430E-01  0.924082E+06  0.959383E+00  114.80    0.00    8.46    0.00   75.72    0.00
  -61.52  -19.10   17.14   -9.02  -61.70 -116.11
   68.12   14.68  122.94   45.90   69.48  110.00
 3.4400  0.296949E+06  0.152482E-02  0.112317E+04  0.110647E-01  0.907608E+06  0.627666E+00  103.54    0.00   10.38    0.00   68.34    0.00
  -62.80  175.67  112.49   -6.21  -62.97  -54.01
   69.19   34.39  -89.24  -34.33   70.53    4.34
 3.4800  0.289569E+06  0.137204E-02  0.958821E+03  0.806682E-02  0.890524E+06  0.516886E+00   91.75    0.00   26.10    0.00   60.65    0.00
  -64.11 -177.07  109.68 -175.49  -64.27  -90.67
   69.99 -101.70  -83.11 -125.95   71.20 -115.74
 3.5200  0.282272E+06  0.384032E-02  0.919743E+03  0.482372E-02  0.873216E+06  0.578684E+00   80.40    0.00   36.35    0.00   53.09    0.00
  -65.50    3.92  108.15 -158.90  -65.63  -91.96
   71.01  120.69  -81.54  -89.22   71.96  -72.09
 3.5600  0.275197E+06  0.136695E-02  0.104402E+04  0.202811E-01  0.856193E+06  0.907555E+00   72.31    0.00   41.07    0.00   48.08    0.00
  -66.94 -173.53  107.83   -1.95  -67.07  -75.02
   71.51   98.91  -81.50   91.50   72.22  -91.46
 3.6000  0.268443E+06  0.136425E-02  0.118358E+04  0.213848E-02  0.839753E+06  0.323361E+00   64.69    0.00   32.72    0.00   43.75    0.00
  -68.45   13.70  107.75 -150.13  -68.57 -104.17
   73.05  117.58  -86.33   29.54   73.57  119.43
 3.6400  0.262080E+06  0.367188E-02  0.135789E+04  0.765047E-02  0.824177E+06  0.551544E+00   59.30    0.00    9.12    0.00   39.74    0.00
  -70.01    1.18  107.78  173.58  -70.11  -98.09
   73.97  -87.13  165.55  101.68   74.46   76.23
 3.6800  0.256109E+06  0.261749E-02  0.102093E+04  0.323556E-02  0.809491E+06  0.441000E+00   53.09    0.00   31.37    0.00   35.21    0.00
  -71.58    3.62  104.69 -179.22  -71.68  107.16
   74.21  -91.24  121.75  -73.68   74.67   58.27
 3.7200  0.250493E+06  0.170151E-02  0.368751E+03  0.116177E-01  0.795584E+06  0.658796E+00   45.95    0.00   44.72    0.00   30.07    0.00
  -73.16  174.49   89.38  172.12  -73.25  -84.05
   74.87  165.28  116.96  108.07   75.28  -84.34
 3.7600  0.245121E+06  0.140856E-02  0.197367E+04  0.328589E-02  0.782164E+06  0.445101E+00   38.83    0.00   45.01    0.00   25.12    0.00
  -74.73   -1.86  106.51  -22.04  -74.80   46.64
   75.22  -84.78  115.60  113.67   75.68   58.43
 3.8000  0.239908E+06  0.222602E-03  0.187326E+04  0.260881E-02  0.769017E+06  0.392035E+00   32.89    0.00   12.37    0.00   21.34    0.00
  -76.28   69.90  105.14 -169.71  -76.34 -121.59
   75.53  -91.59  137.03   91.72   76.12   82.16
 3.8400  0.234779E+06  0.187606E-03  0.523585E+03  0.526774E-02  0.755861E+06  0.305805E+00   26.16    0.00   26.71    0.00   16.95    0.00
  -77.82    7.86   92.98    4.89  -77.87   79.59
   75.23  153.42  -87.24  -89.98   75.89   90.83
 3.8800  0.229692E+06  0.567315E-03  0.203580E+04  0.354710E-02  0.742609E+06  0.490056E+00   20.26    0.00   56.52    0.00   13.05    0.00
  -79.37 -124.35  103.59   -5.35  -79.41  -82.95
   75.40   90.72  -80.78 -139.41   76.05   84.68
 3.9200  0.224671E+06  0.290042E-02  0.319223E+04  0.526068E-02  0.729348E+06  0.963852E-01   15.30    0.00  102.15    0.00    9.90    0.00
  -80.95  -12.55  104.43   -3.79  -80.98 -139.49
   76.16  -70.90  -78.08  -21.07   76.76 -104.63
 3.9600  0.219752E+06  0.194508E-02  0.133730E+04  0.173871E-02  0.716192E+06  0.116560E+00   10.63    0.00  163.32    0.00    6.91    0.00
  -82.56  161.61  101.28  -28.81  -82.58 -156.96
   76.81  -84.83  -76.49  -87.72   77.22  -95.34
 4.0000  0.214971E+06  0.564645E-03  0.371176E+04  0.977606E-02  0.703337E+06  0.440321E+00    7.79    0.00  218.95    0.00    5.12    0.00
  -84.20 -133.10  105.57 -168.76  -84.22   96.52
   78.57  101.63  -74.78  130.76   78.84  117.00
 4.0400  0.210395E+06  0.870796E-03  0.100652E+04  0.336742E-02  0.690932E+06  0.255679E+00    4.86    0.00  276.46    0.00    3.31    0.00
  -85.87  159.95  103.34 -162.35  -85.88   90.27
   80.34   11.32  -71.71   59.18   80.39  -80.16
 4.0800  0.205984E+06  0.419139E-03  0.590570E+04  0.204182E-01  0.678923E+06  0.626441E+00    2.84    0.00  264.46    0.00    1.91    0.00
  -87.55  118.82  115.82 -167.90  -87.56   86.62
   82.25  -59.04  -64.41  -74.31   82.32 -116.33
 4.1200  0.201730E+06  0.161165E-02  0.933071E+04  0.144205E-01  0.667255E+06  0.538067E+00    0.79    0.00  333.74    0.00    0.53    0.00
  -89.25 -118.74  138.32  150.04  -89.25   92.39
   78.99   70.56  -41.49  150.05   79.08   14.44
 4.1600  0.197570E+06  0.574357E-03  0.109327E+05  0.573483E-02  0.655777E+06  0.432135E+00    0.90    0.00  324.38    0.00    0.56    0.00
  -90.94    4.10 -162.85  121.18  -90.94   86.34
  -84.60   28.12   19.30    4.70  -83.59  171.92
 4.2000  0.193478E+06  0.148996E-02  0.608605E+04  0.663230E-02  0.644382E+06  0.332483E+00    2.08    0.00  182.10    0.00    1.26    0.00
  -92.64 -165.23 -132.08  133.99  -92.64   59.75
  -87.18  180.00   55.79 -107.56  -85.81  -30.90
 4.2400  0.189462E+06  0.529100E-03  0.431455E+04  0.625523E-02  0.633125E+06  0.458723E+00    2.76    0.00  199.81    0.00    1.64    0.00
  -94.37    8.33 -122.18  177.08  -94.37   70.55
  -81.31  -33.69   61.83  146.99  -78.66   96.08
 4.2800  0.185589E+06  0.934483E-03  0.168485E+04  0.126959E-02  0.622307E+06  0.768517E+00    0.98    0.00  433.66    0.00    0.91    0.00
  -96.12 -165.09 -112.52  133.72  -96.12   94.53
   53.77  -54.46   69.27 -123.31   64.52  -88.63
 4.3200  0.181815E+06  0.137549E-02  0.127291E+04  0.591200E-02  0.611639E+06  0.219809E+00    1.97    0.00  315.79    0.00    1.65    0.00
  -97.90  170.43 -111.11 -179.57  -97.90   79.85
   54.63  130.14   71.17  -30.13   63.00   87.31
 4.3600  0.178183E+06  0.893508E-03  0.105953E+04  0.740274E-02  0.601373E+06  0.284856E+00    3.53    0.00  246.81    0.00    2.73    0.00
  -99.69  146.55 -115.21 -175.84  -99.69   65.94
   57.05    6.34   68.33   82.44   63.06  100.10
 4.4000  0.174689E+06  0.362643E-03  0.988629E+03  0.168100E-02  0.591493E+06  0.215189E+00    5.10    0.00  219.05    0.00    3.66    0.00
 -101.49 -156.17 -111.78  147.90 -101.49   57.53
   56.24  -97.80   71.15   45.24   61.05 -102.02
 4.4400  0.171283E+06  0.109288E-02  0.818778E+03  0.436448E-02  0.581851E+06  0.866870E+00    7.19    0.00  180.41    0.00    4.74    0.00
 -103.27  175.34 -109.38 -171.70 -103.27   85.30
   56.67  -42.55   73.41  -85.39   59.85  117.36
 4.4800  0.167926E+06  0.207211E-02  0.688383E+03  0.238531E-02  0.572231E+06  0.411782E+00    8.75    0.00  144.98    0.00    5.36    0.00
 -105.04 -177.65 -109.80  178.09 -105.05   90.13
   52.29  124.51   73.75  -93.75   54.71  112.75
 4.5200  0.164552E+06  0.805692E-03  0.593905E+03  0.297202E-02  0.562538E+06  0.857247E+00   10.56    0.00  128.02    0.00    5.84    0.00
 -106.81 -176.91 -112.58 -177.71 -106.83  102.36
   49.60  -73.43   71.28   95.66   50.15   71.54
 4.5600  0.161158E+06  0.180206E-02  0.524837E+03  0.234169E-02  0.552742E+06  0.375814E+00   12.36    0.00   90.67    0.00    6.72    0.00
 -108.61   -2.43 -117.28  176.88 -108.63  119.08
   48.58  -97.13   68.55  171.79   48.57 -142.21
 4.6000  0.157806E+06  0.361390E-03  0.489323E+03  0.597799E-04  0.542949E+06  0.691002E+00   13.77    0.00   82.40    0.00    7.56    0.00
 -110.44   67.13 -113.16   68.67 -110.48   84.72
   43.90 -154.13   73.29  -37.36   44.05  -76.27
 4.6400  0.154523E+06  0.645124E-03  0.413694E+03  0.263802E-02  0.533400E+06  0.316622E+00   16.27    0.00   72.14    0.00    9.06    0.00
 -112.32   -3.43 -112.03    4.59 -112.36   86.47
   42.54  -87.27   74.64   76.56   42.96 -118.00
 4.6800  0.151374E+06  0.555195E-03  0.358859E+03  0.646941E-03  0.524313E+06  0.553506E+00   19.47    0.00   68.74    0.00   11.04    0.00
 -114.23  -44.37 -113.64   26.75 -114.29   96.67
   43.31   55.90   72.13   76.61   44.09  -83.48
 4.7200  0.148406E+06  0.733589E-03  0.316757E+03  0.241660E-02  0.515806E+06  0.451531E+00   23.41    0.00   67.80    0.00   13.49    0.00
 -116.15   -0.17 -116.27  -33.14 -116.22   80.26
   43.67  -87.74   68.61   28.90   44.70  -40.37
 4.7600  0.145577E+06  0.844860E-03  0.295467E+03  0.496437E-03  0.507732E+06  0.762866E+00   28.32    0.00   63.78    0.00   16.54    0.00
 -118.04 -173.82 -120.69   34.54 -118.11   76.83
   43.35  -90.54   64.64   50.44   44.57  108.08
 4.8000  0.142784E+06  0.101015E-02  0.304838E+03  0.158822E-02  0.499745E+06  0.434874E+00   33.73    0.00   65.27    0.00   19.99    0.00
 -119.86 -149.50 -123.28 -132.44 -119.96   54.70
   41.64  -51.46   61.88   -8.34   43.11 -115.40
 4.8400  0.139911E+06  0.595587E-03  0.293066E+03  0.218688E-02  0.491498E+06  0.827226E+00   39.53    0.00   65.67    0.00   23.64    0.00
 -121.65   14.86 -120.46  166.60 -121.77  106.86
   40.38  176.00   63.47  155.25   41.97   -4.38
 4.8800  0.136917E+06  0.213022E-03  0.268790E+03  0.136277E-02  0.482891E+06  0.195533E+00   46.16    0.00   62.48    0.00   27.80    0.00
 -123.45  105.65 -121.39  140.82 -123.58  129.68
   39.93   -6.91   62.04  -10.20   41.51   16.04
 4.9200  0.133837E+06  0.255361E-03  0.251433E+03  0.157214E-02  0.474023E+06  0.197317E+00   52.54    0.00   62.41    0.00   31.40    0.00
 -125.29 -170.38 -124.04   34.15 -125.43   72.81
   39.75  -83.88   58.58  -50.48   41.08   58.30
 4.9600  0.130750E+06  0.244952E-03  0.233790E+03  0.893169E-03  0.465183E+06  0.196263E+00   59.86    0.00   59.82    0.00   35.55    0.00
 -127.19   39.85 -127.47 -131.14 -127.34  150.46
   39.97   84.05   54.76   97.29   41.05 -178.59
 5.0000  0.127770E+06  0.730896E-03  0.223442E+03  0.116393E-02  0.456707E+06  0.277147E+00   66.77    0.00   60.95    0.00   38.56    0.00
 -129.14   -0.80 -131.34  -53.99 -129.29  138.01