VARIABLES="w (rad/s)"
"abs(F   1   1)" "angle(F   1   1)"
"abs(F   1   2)" "angle(F   1   2)"
"abs(F   1   3)" "angle(F   1   3)"
"abs(F   1   4)" "angle(F   1   4)"
"abs(F   1   5)" "angle(F   1   5)"
"abs(F   1   6)" "angle(F   1   6)"
"abs(F   2   7)" "angle(F   2   7)"
"abs(F   2   8)" "angle(F   2   8)"
"abs(F   2   9)" "angle(F   2   9)"
"abs(F   2  10)" "angle(F   2  10)"
"abs(F   2  11)" "angle(F   2  11)"
"abs(F   2  12)" "angle(F   2  12)"
Zone t="FKforce - beta =   0.000",I=   500,F=POINT
  0.4000000E-01  0.1128185E+05 -0.1570761E+01  0.7050198E-01  0.3141592E+01  0.3175690E+06 -0.1266910E-09  0.1197205E+00 -0.3141581E+01  0.7476434E+04  0.1570147E+01  0.4752422E-01 -0.3122848E+01  0.1847245E+04 -0.1570765E+01  0.5493164E-03  0.0000000E+00  0.5368774E+01 -0.3141592E+01  0.1185608E-01 -0.2010940E-04  0.1385440E+04 -0.1570742E+01  0.2387170E-02 -0.3492670E+00
  0.8000000E-01  0.2254724E+05 -0.1570569E+01  0.1320956E-01  0.5416508E-03  0.3167409E+06  0.5923940E-09  0.3116913E+00  0.3141513E+01  0.1489747E+05  0.1571069E+01  0.5503704E-01  0.3029447E+01  0.3687964E+04 -0.1570733E+01  0.6103516E-04  0.3141593E+01  0.2148169E+02 -0.3141593E+01  0.1067657E+00  0.6252680E-04  0.2765964E+04 -0.1570751E+01  0.1630352E-01  0.2758457E+01
  0.1200000E+00  0.3377961E+05 -0.1570921E+01  0.3222049E-01 -0.3140179E+01  0.3153637E+06  0.1908929E-08  0.3558350E-01 -0.3141294E+01  0.2220810E+05  0.1570925E+01  0.1823901E+00 -0.2010932E+00  0.5515613E+04 -0.1570814E+01  0.4272461E-02 -0.1116071E-03  0.4801727E+02 -0.3141593E+01  0.4425049E-02  0.3141404E+01  0.4136666E+04 -0.1570843E+01  0.1431213E-01 -0.2945585E+01
  0.1600000E+00  0.4496212E+05 -0.1570721E+01  0.4454374E-03  0.2982374E+01  0.3134386E+06  0.3826094E-09  0.2139283E+00  0.3140832E+01  0.2935224E+05  0.1570704E+01  0.5560992E-01 -0.1056315E+01  0.7323629E+04 -0.1570816E+01  0.2319336E-02  0.3141593E+01  0.8500348E+02 -0.3141593E+01  0.2670289E-01  0.8571427E-03  0.5492594E+04 -0.1570810E+01  0.1934258E-01 -0.2734422E+01
  0.2000000E+00  0.5607889E+05 -0.1570755E+01  0.8382469E-01  0.8851660E-03  0.3109700E+06  0.1160773E-08  0.8653845E-02 -0.3119502E+01  0.3627398E+05  0.1570813E+01  0.3501958E+00  0.3039369E+01  0.9105427E+04 -0.1570777E+01  0.3051758E-03  0.3141593E+01  0.1326854E+03  0.3141593E+01  0.2670386E-02 -0.3133021E+01  0.6828827E+04 -0.1570802E+01  0.8577791E-02 -0.1961326E+01
  0.2400000E+00  0.6711198E+05 -0.1570791E+01  0.1290211E-01 -0.3134980E+01  0.3079611E+06  0.1213921E-08  0.3167725E-01  0.4308917E-03  0.4291648E+05  0.1570906E+01  0.2360472E+00 -0.1716361E+01  0.1085435E+05 -0.1570816E+01  0.2441406E-03  0.0000000E+00  0.1910392E+03  0.3141593E+01  0.1528320E+00 -0.7800020E-05  0.8140382E+04 -0.1570802E+01  0.6805716E-02  0.1669608E+01
  0.2800000E+00  0.7804613E+05 -0.1570819E+01  0.4322090E-01 -0.3140929E+01  0.3044183E+06 -0.2100526E-08  0.2319492E+00 -0.3139835E+01  0.4922465E+05  0.1570867E+01  0.1167413E+00  0.2245012E+01  0.1256384E+05 -0.1570795E+01  0.1831056E-02  0.1041666E-02  0.2588362E+03  0.3141592E+01  0.4527283E-01 -0.3141256E+01  0.9422351E+04 -0.1570786E+01  0.5453796E-02  0.4921560E+00
  0.3200000E+00  0.8886537E+05 -0.1570825E+01  0.7329661E-01 -0.1333761E-02  0.3003479E+06 -0.4103987E-08  0.2962954E+00 -0.1266342E-02  0.5513827E+05  0.1570722E+01  0.1617108E+00 -0.6972910E-01  0.1422725E+05 -0.1570792E+01  0.1907349E-05 -0.1570796E+01  0.3364697E+03  0.3141593E+01  0.7812559E-02  0.3137717E+01  0.1066956E+05 -0.1570809E+01  0.2473478E-01  0.3091681E+01
  0.3600000E+00  0.9955066E+05 -0.1570803E+01  0.6264836E-01 -0.4842570E-04  0.2957588E+06  0.1979843E-08  0.3266146E+00  0.3140568E+01  0.6060089E+05  0.1570761E+01  0.5471258E-01 -0.9816897E+00  0.1583778E+05 -0.1570804E+01  0.3540041E-02  0.3140515E+01  0.4236595E+03 -0.3141593E+01  0.2185059E-01 -0.7856144E-03  0.1187705E+05 -0.1570793E+01  0.3141468E-01 -0.2821162E+01
  0.3999999E+00  0.1100863E+06 -0.1570795E+01  0.1357394E-01  0.3132327E+01  0.2906601E+06 -0.1481400E-08  0.2572838E-01  0.3128943E+01  0.6555210E+05  0.1570768E+01  0.1318266E+00 -0.2325621E+01  0.1738861E+05 -0.1570793E+01  0.4882812E-02  0.0000000E+00  0.5199458E+03  0.3141593E+01  0.4075624E-01 -0.3140750E+01  0.1303974E+05 -0.1570796E+01  0.2884361E-01 -0.2882083E+01
  0.4400000E+00  0.1204566E+06 -0.1570822E+01  0.7528324E-01  0.3315568E-03  0.2850628E+06  0.5034960E-09  0.5701403E-01  0.1588715E-01  0.6993238E+05  0.1570805E+01  0.9918205E-01 -0.2089296E+01  0.1887317E+05 -0.1570800E+01  0.2441409E-02 -0.1562499E-02  0.6244667E+03  0.3141593E+01  0.2348328E-01  0.3140943E+01  0.1415262E+05 -0.1570795E+01  0.8607179E-02 -0.2794805E+01
  0.4800000E+00  0.1306446E+06 -0.1570822E+01  0.2518707E-01 -0.5255652E-02  0.2789791E+06 -0.3488521E-08  0.2442018E+00  0.9343365E-03  0.7368022E+05  0.1570780E+01  0.1204096E+00  0.2366594E+01  0.2028450E+05 -0.1570801E+01  0.4272631E-03  0.3132664E+01  0.7375621E+03  0.3141593E+01  0.5935669E-01 -0.7230077E-04  0.1521042E+05 -0.1570807E+01  0.2678527E-01 -0.6666527E-01
  0.5200000E+00  0.1406343E+06 -0.1570774E+01  0.3223555E-01 -0.2908267E-02  0.2724243E+06 -0.9738932E-08  0.2388918E+00 -0.1204110E-02  0.7673365E+05  0.1570800E+01  0.3993602E+00 -0.2014589E+01  0.2161575E+05 -0.1570794E+01  0.1831055E-02  0.3141593E+01  0.8581655E+03 -0.3141593E+01  0.5599976E-01 -0.3141584E+01  0.1620808E+05 -0.1570788E+01  0.4234839E-02  0.1360261E+01
  0.5600000E+00  0.1504071E+06 -0.1570838E+01  0.6833516E-01  0.3140952E+01  0.2654132E+06 -0.1448047E-08  0.3541876E-01  0.3128335E+01  0.7903259E+05  0.1570773E+01  0.4167252E+00  0.1453457E+01  0.2286023E+05 -0.1570789E+01  0.2868655E-02  0.3140263E+01  0.9849805E+03  0.3141593E+01  0.9037781E-01  0.3141593E+01  0.1714047E+05 -0.1570796E+01  0.4267451E-01 -0.1750023E+00
  0.6000000E+00  0.1599497E+06 -0.1570812E+01  0.1032920E-01  0.3125031E+01  0.2579645E+06  0.9231210E-08  0.1049961E+00 -0.3138868E+01  0.8051058E+05  0.1570818E+01  0.5801991E+00  0.1935593E+01  0.2401109E+05 -0.1570785E+01  0.3234866E-02 -0.1179245E-02  0.1118721E+04  0.3141593E+01  0.1441498E+00 -0.3140961E+01  0.1800258E+05 -0.1570800E+01  0.9744777E-02 -0.6739615E+00
  0.6400000E+00  0.1692443E+06 -0.1570780E+01  0.1437044E-01 -0.3129434E+01  0.2501004E+06  0.1303340E-07  0.2338791E+00 -0.3141562E+01  0.8110498E+05  0.1570830E+01  0.1718093E+00 -0.1904953E+01  0.2506166E+05 -0.1570796E+01  0.4272461E-03  0.3141593E+01  0.1258023E+04 -0.3141593E+01  0.4758454E-01 -0.5611672E-03  0.1878923E+05 -0.1570799E+01  0.8530837E-02  0.2883194E+00
  0.6800000E+00  0.1782761E+06 -0.1570799E+01  0.1288596E-01 -0.6831890E-02  0.2418430E+06  0.8253454E-08  0.1074983E+00  0.1277501E-02  0.8075125E+05  0.1570738E+01  0.6422807E-01 -0.7291093E+00  0.2600536E+05 -0.1570794E+01  0.3784182E-02 -0.1008064E-02  0.1401842E+04  0.3141593E+01  0.1564713E+00 -0.3141233E+01  0.1949565E+05 -0.1570804E+01  0.3581353E-01  0.3509664E+00
  0.7200000E+00  0.1870303E+06 -0.1570801E+01  0.2286816E-02 -0.3053506E+01  0.2332182E+06 -0.2065043E-08  0.1213686E+00 -0.3139787E+01  0.7938734E+05  0.1570772E+01  0.6079807E+00  0.1728989E+01  0.2683589E+05 -0.1570790E+01  0.7324219E-03  0.0000000E+00  0.1549075E+04 -0.3141593E+01  0.2494812E-01  0.2675841E-03  0.2011708E+05 -0.1570801E+01  0.2169285E-01 -0.2523944E+01
  0.7599999E+00  0.1954932E+06 -0.1570798E+01  0.2687839E-01 -0.3141038E+01  0.2242562E+06 -0.9126103E-08  0.6756595E-01  0.3140622E+01  0.7694688E+05  0.1570740E+01  0.1891508E+00 -0.1152015E+01  0.2754716E+05 -0.1570792E+01  0.2441406E-03  0.3141593E+01  0.1699404E+04 -0.3141593E+01  0.2132481E-03  0.2677945E+01  0.2064876E+05 -0.1570792E+01  0.2759744E-01 -0.6859909E+00
  0.8000000E+00  0.2036475E+06 -0.1570786E+01  0.2399715E-01  0.3139400E+01  0.2149894E+06 -0.1459859E-07  0.2215707E-01  0.3130746E+01  0.7336966E+05  0.1570812E+01  0.1689275E+00 -0.1507491E+01  0.2813330E+05 -0.1570796E+01  0.1037605E-02  0.3137916E+01  0.1850265E+04 -0.3141593E+01  0.5033876E-01  0.3140920E+01  0.2108649E+05 -0.1570804E+01  0.1346921E-01  0.1830879E+01
  0.8400000E+00  0.2114830E+06 -0.1570812E+01  0.1017258E-01  0.3123154E+01  0.2054530E+06  0.7120541E-08  0.1533983E+00 -0.3136909E+01  0.6859837E+05  0.1570809E+01  0.3246144E+00  0.2079682E+01  0.2858917E+05 -0.1570797E+01  0.1831055E-02  0.3141593E+01  0.2001216E+04 -0.3141593E+01  0.2501688E-01 -0.3138867E+01  0.2142630E+05 -0.1570794E+01  0.7967913E-02  0.9681206E+00
  0.8800000E+00  0.2189875E+06 -0.1570803E+01  0.2287629E-02  0.3128403E+01  0.1956867E+06  0.9712836E-08  0.1927756E-01  0.3104388E+01  0.6257393E+05  0.1570828E+01  0.3714027E+00 -0.1184802E+01  0.2891001E+05 -0.1570791E+01  0.1226056E-03 -0.9347678E-01  0.2151065E+04  0.3141593E+01  0.5247498E-01 -0.7269555E-04  0.2166495E+05 -0.1570796E+01  0.5981416E-02  0.1542731E+01
  0.9200000E+00  0.2261508E+06 -0.1570808E+01  0.1362356E-01 -0.1247370E-01  0.1857354E+06  0.5843158E-08  0.1152804E+00  0.2103322E-02  0.5524608E+05  0.1570843E+01  0.2804809E-01 -0.1808103E+01  0.2909218E+05 -0.1570794E+01  0.2441418E-02 -0.3138468E+01  0.2297409E+04 -0.3141593E+01  0.9860230E-01  0.3191736E-03  0.2179923E+05 -0.1570793E+01  0.1773290E-01  0.1278387E+01
  0.9600000E+00  0.2329636E+06 -0.1570787E+01  0.1909628E-01 -0.3123710E+01  0.1756445E+06  0.1816192E-07  0.3460621E+00 -0.1579412E-02  0.4656779E+05  0.1570866E+01  0.1644935E+00  0.8853912E+00  0.2913295E+05 -0.1570800E+01  0.6151015E-04  0.1243550E+00  0.2439451E+04  0.3141593E+01  0.1258091E-01 -0.2387806E-02  0.2182712E+05 -0.1570788E+01  0.1584865E-01 -0.9969261E-01
  0.1000000E+01  0.2394227E+06 -0.1570798E+01  0.3533136E-03  0.2976768E+01  0.1654662E+06  0.1267407E-07  0.2551739E-01  0.3095088E+01  0.3650221E+05  0.1570817E+01  0.6424169E+00 -0.1532344E+01  0.2903044E+05 -0.1570800E+01  0.2197266E-02  0.3141593E+01  0.2575063E+04  0.3141593E+01  0.7904125E-02  0.4283275E-02  0.2174755E+05 -0.1570799E+01  0.9138957E-02  0.1097512E+01
  0.1040000E+01  0.2455160E+06 -0.1570798E+01  0.1532915E-02 -0.3013290E+01  0.1552543E+06 -0.3329321E-08  0.1530190E+00 -0.3134474E+01  0.2502321E+05  0.1570817E+01  0.6123234E+00 -0.1675043E+01  0.2878448E+05 -0.1570795E+01  0.2258304E-02 -0.3139904E+01  0.2702346E+04  0.3141593E+01  0.1189423E-01 -0.3141432E+01  0.2156028E+05 -0.1570798E+01  0.1999020E-01  0.6856108E-01
  0.1080000E+01  0.2512497E+06 -0.1570795E+01  0.2141941E-02  0.6642855E-01  0.1450667E+06 -0.4141646E-09  0.1747442E+00  0.3139112E+01  0.1211250E+05  0.1570848E+01  0.6719510E-01 -0.2529176E+01  0.2839652E+05 -0.1570801E+01  0.7629490E-03  0.3136593E+01  0.2819626E+04  0.3141593E+01  0.6347950E-02  0.3131978E+01  0.2126633E+05 -0.1570797E+01  0.3135637E-02  0.1997235E+01
  0.1120000E+01  0.2566186E+06 -0.1570797E+01  0.3750837E-03 -0.2810906E+01  0.1349631E+06 -0.7878795E-08  0.8097079E-01  0.3140742E+01  0.2228454E+04 -0.1570871E+01  0.1218724E+01  0.1570571E+01  0.2786973E+05 -0.1570792E+01  0.1647949E-02  0.3141593E+01  0.2925059E+04  0.3141593E+01  0.3646852E-02  0.3140808E+01  0.2086815E+05 -0.1570798E+01  0.1057507E-01  0.1328180E+01
  0.1160000E+01  0.2616245E+06 -0.1570799E+01  0.2061329E-01 -0.2214810E-03  0.1250051E+06  0.2377986E-07  0.6665747E-01  0.3131692E+01  0.1798649E+05 -0.1570798E+01  0.1862029E+00  0.9498638E+00  0.2720934E+05 -0.1570789E+01  0.3082278E-02 -0.3140355E+01  0.3016713E+04 -0.3141593E+01  0.3754044E-01 -0.6223960E-03  0.2036996E+05 -0.1570801E+01  0.3372207E-02  0.2293963E+01
  0.1200000E+01  0.2662748E+06 -0.1570786E+01  0.2268154E-01 -0.3141228E+01  0.1152534E+06  0.3127795E-07  0.1271655E+00  0.3126724E+01  0.3512695E+05 -0.1570811E+01  0.3633673E+00  0.1626245E+01  0.2642291E+05 -0.1570796E+01  0.7019147E-03  0.5434729E-02  0.3092524E+04 -0.3141593E+01  0.1549704E-02 -0.3106816E+01  0.1977684E+05 -0.1570795E+01  0.9622484E-02  0.3412772E+00
  0.1240000E+01  0.2705819E+06 -0.1570796E+01  0.1136197E-01 -0.3141187E+01  0.1057676E+06  0.1599561E-07  0.5074335E-01  0.2759320E-01  0.5359812E+05 -0.1570809E+01  0.4939280E+00 -0.1433643E+01  0.2551985E+05 -0.1570798E+01  0.7934570E-03  0.0000000E+00  0.3151706E+04  0.3141593E+01  0.6916061E-02  0.2068392E-02  0.1909640E+05 -0.1570794E+01  0.1047720E-01  0.2897321E+01
  0.1280000E+01  0.2745490E+06 -0.1570802E+01  0.3968752E-01 -0.3138984E+01  0.9660561E+05  0.1209299E-07  0.9927524E-01  0.5594537E-02  0.7332779E+05 -0.1570818E+01  0.4821554E+00 -0.1806116E+01  0.2451168E+05 -0.1570797E+01  0.2136571E-03  0.1785525E-01  0.3192457E+04  0.3141593E+01  0.1013184E-01  0.4706325E-04  0.1833741E+05 -0.1570795E+01  0.4983452E-02 -0.1864343E+01
  0.1320000E+01  0.2781956E+06 -0.1570798E+01  0.2080698E-02  0.3126139E+01  0.8781911E+05 -0.1387848E-07  0.5300488E-01  0.1658732E-01  0.9422321E+05 -0.1570804E+01  0.4567325E+00  0.1974649E+01  0.2341221E+05 -0.1570798E+01  0.8239835E-03 -0.3136963E+01  0.3213920E+04  0.3141593E+01  0.9262125E-02 -0.2934505E-02  0.1750983E+05 -0.1570797E+01  0.3905998E-02  0.9191647E+00
  0.1360000E+01  0.2815307E+06 -0.1570791E+01  0.2414092E-01 -0.5444343E-02  0.7945424E+05  0.5485285E-08  0.3357754E-01  0.5857977E-02  0.1161740E+06 -0.1570796E+01  0.2982521E+00  0.1565549E+01  0.2223646E+05 -0.1570795E+01  0.3662159E-03  0.3136384E+01  0.3215353E+04 -0.3141593E+01  0.7903883E-03  0.4345090E-01  0.1662532E+05 -0.1570793E+01  0.6499450E-02 -0.9536512E+00
  0.1400000E+01  0.2845755E+06 -0.1570791E+01  0.1830819E-01  0.3135492E+01  0.7154967E+05  0.2692426E-07  0.1347354E-01  0.3139460E+01  0.1390539E+06 -0.1570810E+01  0.3025900E+00 -0.1674912E+01  0.2100100E+05 -0.1570798E+01  0.1831055E-03  0.3141593E+01  0.3196765E+04  0.3141593E+01  0.3243446E-01 -0.2940312E-04  0.1569621E+05 -0.1570795E+01  0.9247822E-02 -0.2192784E+01
  0.1440000E+01  0.2873434E+06 -0.1570797E+01  0.1255303E-01 -0.3137835E+01  0.6413450E+05 -0.2065431E-07  0.2857544E-01 -0.5136835E-01  0.1627261E+06 -0.1570809E+01  0.1200793E+01  0.1632429E+01  0.1972268E+05 -0.1570794E+01  0.5188023E-03 -0.3676454E-02  0.3158206E+04 -0.3141593E+01  0.1531708E-02 -0.3129763E+01  0.1473523E+05 -0.1570796E+01  0.1927177E-01 -0.1436884E+01
  0.1480000E+01  0.2898512E+06 -0.1570799E+01  0.9801493E-02 -0.3655810E-02  0.5722902E+05  0.2502126E-07  0.1659966E+00 -0.3140773E+01  0.1870413E+06 -0.1570801E+01  0.2062201E+00  0.1035166E+01  0.1841896E+05 -0.1570795E+01  0.3967469E-03 -0.9615088E-02  0.3100442E+04  0.3141593E+01  0.1240621E-02 -0.3690631E-01  0.1375545E+05 -0.1570794E+01  0.1890624E-01 -0.1828890E+01
  0.1520000E+01  0.2921170E+06 -0.1570803E+01  0.5449797E-02 -0.3135870E+01  0.5084347E+05  0.1927289E-07  0.4841908E-01  0.6546588E-02  0.2118489E+06 -0.1570788E+01  0.6321939E+00 -0.1783166E+01  0.1710644E+05 -0.1570797E+01  0.1069647E-03  0.3088072E+01  0.3024614E+04 -0.3141593E+01  0.1291275E-02  0.0000000E+00  0.1276945E+05 -0.1570796E+01  0.1793419E-02  0.7342380E+00
  0.1560000E+01  0.2941545E+06 -0.1570795E+01  0.4820109E-02  0.3125932E+01  0.4497927E+05  0.4499176E-07  0.8001609E-01 -0.3130724E+01  0.2369979E+06 -0.1570784E+01  0.1355440E+00 -0.1699852E+01  0.1580117E+05 -0.1570795E+01  0.5340576E-03  0.0000000E+00  0.2932153E+04  0.3141593E+01  0.1485826E-02  0.3140148E+01  0.1178929E+05 -0.1570797E+01  0.1774464E-01  0.1516811E+01
  0.1600000E+01  0.2959801E+06 -0.1570798E+01  0.3260078E-02 -0.3056362E+01  0.3962886E+05  0.1321176E-07  0.1640474E-01  0.3127898E+01  0.2623393E+06 -0.1570789E+01  0.1746363E+00  0.1191705E+01  0.1451757E+05 -0.1570798E+01  0.1373423E-03 -0.1388800E-01  0.2824982E+04  0.3141593E+01  0.6618521E-02 -0.2557631E-02  0.1082585E+05 -0.1570795E+01  0.9813273E-02 -0.1482635E+01
  0.1640000E+01  0.2976084E+06 -0.1570790E+01  0.6430076E-02  0.2990193E-01  0.3477788E+05 -0.2769609E-08  0.6871971E-01 -0.3134459E+01  0.2877329E+06 -0.1570791E+01  0.4261557E+00 -0.1468821E+01  0.1326859E+05 -0.1570796E+01  0.6869104E-04  0.3113822E+01  0.2704985E+04 -0.3141593E+01  0.3130629E-01 -0.1043348E-02  0.9888692E+04 -0.1570796E+01  0.3301759E-02 -0.1998171E+01
  0.1680000E+01  0.2990466E+06 -0.1570791E+01  0.6372734E-02 -0.3095696E+01  0.3040524E+05  0.1627867E-07  0.5915585E-02 -0.9663682E-01  0.3130516E+06 -0.1570797E+01  0.6701856E+00 -0.1503862E+01  0.1206504E+05 -0.1570797E+01  0.1537754E-04  0.1243550E+00  0.2574521E+04 -0.3141593E+01  0.1127438E-01  0.3138865E+01  0.8986025E+04 -0.1570797E+01  0.1391289E-01  0.1690973E+01
  0.1720000E+01  0.3003065E+06 -0.1570794E+01  0.9842912E-02  0.1307496E-02  0.2648588E+05 -0.1863357E-07  0.5326743E-01  0.1027568E-01  0.3381716E+06 -0.1570787E+01  0.3221266E+00  0.1314384E+01  0.1091584E+05 -0.1570796E+01  0.1602201E-03 -0.5952311E-02  0.2435783E+04 -0.3141593E+01  0.1486111E-01 -0.3141577E+01  0.8124548E+04 -0.1570796E+01  0.5991444E-02 -0.1143069E+01
  0.1760000E+01  0.3014037E+06 -0.1570797E+01  0.4330835E-02  0.3083877E+01  0.2299093E+05  0.5143578E-08  0.2493905E-02 -0.3135474E+01  0.3629892E+06 -0.1570805E+01  0.1124692E+00 -0.1481749E+01  0.9827906E+04 -0.1570799E+01  0.2021812E-03 -0.4716946E-02  0.2291056E+04 -0.3141593E+01  0.2389527E-01  0.3140944E+01  0.7309453E+04 -0.1570796E+01  0.3506809E-02 -0.1959029E+01
  0.1800000E+01  0.3023398E+06 -0.1570793E+01  0.1401307E-01 -0.2855900E-01  0.1988960E+05 -0.1782482E-07  0.1355702E-01 -0.2534026E-01  0.3874073E+06 -0.1570791E+01  0.8426590E-01 -0.9119868E+00  0.8806134E+04 -0.1570796E+01  0.1182595E-03  0.8064342E-02  0.2142589E+04  0.3141593E+01  0.4065578E-02  0.3135963E+01  0.6544362E+04 -0.1570796E+01  0.3102984E-02  0.2010835E+01
  0.1840000E+01  0.3031274E+06 -0.1570794E+01  0.1580594E-01 -0.3137838E+01  0.1715030E+05  0.4928159E-07  0.2515855E-01  0.3130389E+01  0.4113489E+06 -0.1570790E+01  0.3308626E+00 -0.1440114E+01  0.7853793E+04 -0.1570797E+01  0.4386902E-03  0.0000000E+00  0.1992478E+04  0.3141593E+01  0.1968920E-02  0.7749905E-02  0.5831675E+04 -0.1570797E+01  0.9409008E-02 -0.1597659E+01
  0.1880000E+01  0.3037685E+06 -0.1570798E+01  0.3539470E-03 -0.3054578E+01  0.1474122E+05 -0.1672350E-07  0.2052843E-01  0.3138307E+01  0.4347387E+06 -0.1570794E+01  0.2229705E+00 -0.1604179E+01  0.6972430E+04 -0.1570796E+01  0.2288838E-03  0.4166643E-02  0.1842649E+04 -0.3141593E+01  0.2151968E-02  0.3140263E+01  0.5172530E+04 -0.1570796E+01  0.4455543E-02 -0.2415957E+01
  0.1920000E+01  0.3042767E+06 -0.1570799E+01  0.1182404E-01  0.3136905E+01  0.1263116E+05 -0.2523646E-07  0.5472561E-01  0.4030971E-02  0.4575252E+06 -0.1570799E+01  0.4185479E+00 -0.1561167E+01  0.6162165E+04 -0.1570797E+01  0.3243895E-04  0.3112189E+01  0.1694825E+04 -0.3141593E+01  0.1089907E-01  0.3140707E+01  0.4566990E+04 -0.1570796E+01  0.2084340E-02  0.1588413E+01
  0.1960000E+01  0.3046528E+06 -0.1570795E+01  0.1489602E-01 -0.9245346E-03  0.1079024E+05 -0.1140142E-07  0.1340154E-01  0.1209999E-01  0.4796559E+06 -0.1570797E+01  0.3605409E+00  0.1603966E+01  0.5422103E+04 -0.1570796E+01  0.8583069E-04  0.0000000E+00  0.1550575E+04 -0.3141593E+01  0.1864934E-02  0.5113737E-02  0.4014314E+04 -0.1570796E+01  0.1288348E-02  0.5330564E+00
  0.2000000E+01  0.3049011E+06 -0.1570797E+01  0.1580824E-01 -0.3127759E+01  0.9190145E+04  0.1862697E-07  0.2288078E-01 -0.3122798E+01  0.5010907E+06 -0.1570798E+01  0.1163210E+01  0.1572988E+01  0.4750229E+04 -0.1570797E+01  0.1506805E-03  0.0000000E+00  0.1411143E+04  0.3141593E+01  0.2668142E-02 -0.8935752E-04  0.3512989E+04 -0.1570798E+01  0.2681533E-02  0.1818999E+01
  0.2040000E+01  0.3050325E+06 -0.1570801E+01  0.6265079E-02  0.4632193E-02  0.7804308E+04 -0.3864526E-07  0.5471185E-02 -0.7968338E-01  0.5217966E+06 -0.1570792E+01  0.2698210E+00  0.1470078E+01  0.4143850E+04 -0.1570797E+01  0.5898150E-05  0.2896614E+01  0.1277620E+04  0.3141593E+01  0.4406699E-02  0.1974785E-02  0.3060904E+04 -0.1570796E+01  0.2161951E-02 -0.1095435E+01
  0.2080000E+01  0.3050491E+06 -0.1570796E+01  0.5291799E-02  0.5897378E-01  0.6608185E+04 -0.3855072E-07  0.4586631E-01 -0.3138000E+01  0.5417540E+06 -0.1570791E+01  0.9230398E-01  0.1357358E+01  0.3599627E+04 -0.1570795E+01  0.4197251E-04 -0.3118869E+01  0.1150847E+04 -0.3141593E+01  0.6921421E-03  0.6114288E-02  0.2655572E+04 -0.1570796E+01  0.1122137E-02 -0.1436967E+01
  0.2120000E+01  0.3049575E+06 -0.1570793E+01  0.1715239E-02 -0.9629515E-02  0.5579240E+04 -0.3328914E-07  0.1584515E-01 -0.2352781E-01  0.5609408E+06 -0.1570795E+01  0.9179203E+00  0.1525182E+01  0.3113855E+04 -0.1570796E+01  0.5531517E-04  0.8620476E-02  0.1031450E+04 -0.3141593E+01  0.7605080E-02 -0.3140535E+01  0.2294108E+04 -0.1570795E+01  0.1208256E-02 -0.9489927E+00
  0.2160000E+01  0.3047619E+06 -0.1570789E+01  0.4807103E-02  0.3081646E+01  0.4697098E+04  0.3761219E-07  0.3240472E-01 -0.3134693E+01  0.5793464E+06 -0.1570798E+01  0.9425944E+00  0.1623737E+01  0.2682569E+04 -0.1570796E+01  0.4577637E-04  0.3141593E+01  0.9198604E+03 -0.3141593E+01  0.4361749E-02 -0.3141374E+01  0.1973546E+04 -0.1570797E+01  0.6092512E-03 -0.2191148E+01
  0.2200000E+01  0.3044639E+06 -0.1570794E+01  0.3116000E-02  0.3883178E-01  0.3943166E+04 -0.1614382E-07  0.1807783E-01  0.2510604E-01  0.5969569E+06 -0.1570800E+01  0.6256435E+00  0.1551643E+01  0.2301595E+04 -0.1570796E+01  0.4774328E-05 -0.3091634E+01  0.8163270E+03  0.3141593E+01  0.8391142E-03 -0.3141451E+01  0.1690703E+04 -0.1570796E+01  0.3881793E-03  0.1978793E+01
  0.2240000E+01  0.3040742E+06 -0.1570795E+01  0.1293272E-01 -0.3134076E+01  0.3300877E+04 -0.3777570E-07  0.1632372E-01  0.2655620E-01  0.6137703E+06 -0.1570796E+01  0.7399005E+00  0.1582281E+01  0.1966756E+04 -0.1570796E+01  0.1430511E-04  0.3141593E+01  0.7209432E+03 -0.3141593E+01  0.1660347E-02  0.3141054E+01  0.1442410E+04 -0.1570796E+01  0.1791199E-02 -0.1849105E+01
  0.2280000E+01  0.3035891E+06 -0.1570801E+01  0.2192296E-02  0.3120022E+01  0.2755394E+04 -0.7569033E-07  0.2066722E-01  0.3732650E-02  0.6297912E+06 -0.1570794E+01  0.1064394E+01 -0.1612397E+01  0.1673892E+04 -0.1570797E+01  0.2480012E-04  0.3122364E+01  0.6336570E+03 -0.3141593E+01  0.1767279E-02  0.3140530E+01  0.1225538E+04 -0.1570796E+01  0.5651296E-03  0.1664168E+01
  0.2320000E+01  0.3030169E+06 -0.1570795E+01  0.1124811E-01  0.3130696E+01  0.2293575E+04 -0.1079527E-06  0.2981649E-01  0.3129654E+01  0.6450159E+06 -0.1570796E+01  0.5653962E+00  0.1564861E+01  0.1419002E+04 -0.1570795E+01  0.3004074E-04  0.3141593E+01  0.5543040E+03 -0.3141593E+01  0.3379644E-02  0.6437275E-03  0.1037038E+04 -0.1570796E+01  0.3297587E-03  0.2067835E+01
  0.2360000E+01  0.3023629E+06 -0.1570797E+01  0.6062798E-02  0.3132637E+01  0.1903753E+04 -0.4915517E-07  0.2261382E-01 -0.3134010E+01  0.6594452E+06 -0.1570791E+01  0.8687504E-02  0.2580715E+01  0.1198174E+04 -0.1570796E+01  0.7630326E-05  0.1562373E-01  0.4826117E+03  0.3141593E+01  0.6930251E-03  0.3139227E+01  0.8739788E+03 -0.1570796E+01  0.1603083E-02 -0.1539373E+01
  0.2400000E+01  0.3016232E+06 -0.1570794E+01  0.1444690E-02 -0.3090733E+01  0.1575719E+04 -0.8155491E-07  0.5783573E-02 -0.3077658E+01  0.6730876E+06 -0.1570797E+01  0.5000000E+00 -0.1658125E+01  0.1007752E+04 -0.1570796E+01  0.2002752E-04 -0.3135640E+01  0.4182384E+03  0.3141593E+01  0.9246469E-03 -0.3141303E+01  0.7335909E+03 -0.1570797E+01  0.1756058E-03  0.1478001E+01
  0.2440000E+01  0.3008065E+06 -0.1570795E+01  0.3446520E-03  0.1262198E+01  0.1300510E+04  0.1019756E-07  0.2750459E-02 -0.3004486E+01  0.6859485E+06 -0.1570803E+01  0.2274792E+00  0.1772679E+01  0.8442922E+03 -0.1570797E+01  0.1096790E-04  0.1086914E-01  0.3607816E+03  0.3141593E+01  0.3766746E-02 -0.3141335E+01  0.6132842E+03 -0.1570796E+01  0.5597991E-03 -0.1459728E+01
  0.2480000E+01  0.2999142E+06 -0.1570796E+01  0.6705509E-02 -0.5720920E-01  0.1070305E+04 -0.1773708E-07  0.2542961E-01  0.3077719E+01  0.6980469E+06 -0.1570796E+01  0.1689656E+01  0.1566787E+01  0.7046076E+03 -0.1570797E+01  0.4054868E-05 -0.3112189E+01  0.3097929E+03  0.3141593E+01  0.1237303E-02 -0.3140713E+01  0.5106588E+03 -0.1570796E+01  0.1932026E-04 -0.1853758E+01
  0.2520000E+01  0.2989485E+06 -0.1570796E+01  0.2622123E-02  0.3136403E+01  0.8783476E+03 -0.5018245E-07  0.7730861E-02  0.3070047E+01  0.7093815E+06 -0.1570797E+01  0.1170739E+01  0.1570221E+01  0.5857783E+03 -0.1570796E+01  0.1430511E-05  0.0000000E+00  0.2648075E+03  0.3141593E+01  0.1415908E-02 -0.3141119E+01  0.4235228E+03 -0.1570796E+01  0.3852963E-03  0.1679920E+01
  0.2560000E+01  0.2979068E+06 -0.1570796E+01  0.3233766E-03 -0.3761617E+00  0.7187399E+03  0.2301290E-07  0.2666816E-02  0.1781027E+00  0.7199685E+06 -0.1570796E+01  0.5324016E+00 -0.1520639E+01  0.4851220E+03 -0.1570796E+01  0.1797058E-05  0.9966865E-01  0.2253333E+03 -0.3141593E+01  0.1769245E-02  0.4800727E-03  0.3498599E+03 -0.1570796E+01  0.8573622E-03 -0.1594818E+01
  0.2600000E+01  0.2967939E+06 -0.1570796E+01  0.6882257E-02  0.3137348E+01  0.5864467E+03  0.1255724E-06  0.6363965E-02  0.3125915E+01  0.7298246E+06 -0.1570798E+01  0.4089345E+00  0.1554237E+01  0.4002339E+03 -0.1570796E+01  0.9555351E-06 -0.3079174E+01  0.1908869E+03 -0.3141593E+01  0.6222889E-03  0.2214982E-02  0.2878698E+03 -0.1570796E+01  0.1402763E-03 -0.1535734E+01
  0.2640000E+01  0.2956123E+06 -0.1570796E+01  0.2887408E-02 -0.4281832E-01  0.4771160E+03 -0.1130276E-06  0.2750431E-01  0.3081939E+01  0.7389514E+06 -0.1570794E+01  0.1281097E+01  0.1549454E+01  0.3289496E+03 -0.1570796E+01  0.5960464E-06  0.0000000E+00  0.1609884E+03 -0.3141593E+01  0.3832294E-04  0.3116510E+01  0.2359298E+03 -0.1570796E+01  0.1255569E-03 -0.1418535E+01
  0.2680000E+01  0.2943624E+06 -0.1570793E+01  0.6639134E-02 -0.4842351E-02  0.3870384E+03 -0.1598540E-06  0.2067490E-02 -0.1567445E+00  0.7473674E+06 -0.1570794E+01  0.5801608E+00  0.1616521E+01  0.2693413E+03 -0.1570796E+01  0.5372690E-06  0.3086094E+01  0.1351743E+03 -0.3141593E+01  0.3051613E-03 -0.3139859E+01  0.1926033E+03 -0.1570796E+01  0.1636993E-03 -0.1610540E+01
  0.2720000E+01  0.2930439E+06 -0.1570794E+01  0.2461571E-02  0.2977569E+01  0.3130477E+03 -0.2042052E-07  0.2055844E-02 -0.5729390E-01  0.7550814E+06 -0.1570796E+01  0.5801900E+00 -0.1543207E+01  0.2197077E+03 -0.1570797E+01  0.2384186E-06  0.3141593E+01  0.1130022E+03  0.3141593E+01  0.4654303E-03  0.0000000E+00  0.1566168E+03 -0.1570797E+01  0.3510399E-04 -0.1242535E+01
  0.2760000E+01  0.2916560E+06 -0.1570799E+01  0.9346033E-02 -0.3133743E+01  0.2524541E+03 -0.8830175E-07  0.1012069E-01 -0.9812239E-02  0.7621165E+06 -0.1570795E+01  0.6682412E+00 -0.1545154E+01  0.1785492E+03 -0.1570796E+01  0.2563173E-05 -0.3129965E+01  0.9405514E+02 -0.3141593E+01  0.2265054E-03  0.1595341E-02  0.1268560E+03 -0.1570796E+01  0.4075790E-05 -0.2053657E+01
  0.2800000E+01  0.2902026E+06 -0.1570796E+01  0.3496858E-02  0.3122106E+01  0.2029841E+03 -0.1667519E-06  0.5527350E-02  0.3139650E+01  0.7684792E+06 -0.1570795E+01  0.9990941E+00 -0.1527102E+01  0.1445602E+03 -0.1570796E+01  0.8945663E-06  0.3108272E+01  0.7794547E+02  0.3141593E+01  0.4184247E-04 -0.6232193E-03  0.1023489E+03 -0.1570797E+01  0.1496731E-03  0.1582096E+01
  0.2840000E+01  0.2886790E+06 -0.1570796E+01  0.1570333E-02  0.2099628E+00  0.1627198E+03  0.2880052E-07  0.2776905E-01  0.3137568E+01  0.7741731E+06 -0.1570797E+01  0.3360180E+00  0.1543436E+01  0.1166069E+03 -0.1570797E+01  0.1668930E-05  0.0000000E+00  0.6431712E+02  0.3141593E+01  0.2730452E-03 -0.8595400E-03  0.8225410E+02 -0.1570796E+01  0.7682476E-04  0.1563911E+01
  0.2880000E+01  0.2870873E+06 -0.1570796E+01  0.4650425E-02 -0.3138035E+01  0.1300516E+03 -0.2364907E-06  0.8075198E-02 -0.4280465E-01  0.7792222E+06 -0.1570793E+01  0.7680432E-01  0.1317309E+01  0.9371236E+02 -0.1570797E+01  0.8344650E-06  0.0000000E+00  0.5284476E+02  0.3141593E+01  0.9319995E-04  0.3677336E-02  0.6584759E+02 -0.1570797E+01  0.2953519E-04  0.1579373E+01
  0.2920000E+01  0.2854306E+06 -0.1570798E+01  0.4780575E-02  0.3118316E+01  0.1036246E+03  0.8390701E-07  0.7259886E-02  0.8885304E-01  0.7836464E+06 -0.1570796E+01  0.7962225E-01 -0.1628394E+01  0.7503388E+02 -0.1570796E+01  0.2835139E-06 -0.5258306E-01  0.4323294E+02  0.3141593E+01  0.1669729E-04 -0.8031956E-02  0.5250736E+02 -0.1570796E+01  0.1126060E-03 -0.1547157E+01
  0.2960000E+01  0.2837017E+06 -0.1570795E+01  0.4428357E-02 -0.3103261E+01  0.8231464E+02 -0.2986943E-07  0.2026866E-02  0.1568688E+00  0.7874331E+06 -0.1570794E+01  0.1314489E+00 -0.1554682E+01  0.5985700E+02 -0.1570796E+01  0.6109930E-06  0.3129398E+01  0.3521929E+02  0.3141593E+01  0.2523326E-04 -0.3141002E+01  0.4170643E+02 -0.1570796E+01  0.2543952E-05 -0.8735269E+00
  0.3000000E+01  0.2819089E+06 -0.1570796E+01  0.9684516E-02  0.3139636E+01  0.6518501E+02 -0.8812452E-07  0.8566516E-02 -0.3055522E+01  0.7906241E+06 -0.1570796E+01  0.2105133E+00  0.1456272E+01  0.4757489E+02 -0.1570796E+01  0.4768954E-06  0.3125969E+01  0.2856975E+02  0.3141593E+01  0.8847751E-04  0.3141445E+01  0.3299808E+02 -0.1570796E+01  0.1109590E-04  0.1751566E+01
  0.3040000E+01  0.2800444E+06 -0.1570796E+01  0.9508440E-03  0.7686340E-01  0.5145934E+02  0.2600715E-06  0.4504302E-01  0.3136020E+01  0.7932047E+06 -0.1570795E+01  0.4359537E+00 -0.1542195E+01  0.3767437E+02 -0.1570796E+01  0.8229435E-07 -0.3050933E+01  0.2307813E+02  0.3141593E+01  0.7721038E-04 -0.6634179E-03  0.2600594E+02 -0.1570796E+01  0.5538713E-05  0.2412940E+01
  0.3080000E+01  0.2781099E+06 -0.1570797E+01  0.1333799E-02 -0.1235650E+00  0.4049613E+02  0.9199127E-09  0.1451258E-01  0.7539743E-03  0.7951955E+06 -0.1570796E+01  0.4633593E-01  0.1590332E+01  0.2972501E+02 -0.1570796E+01  0.1564622E-06  0.3141593E+01  0.1856395E+02  0.3141593E+01  0.7190090E-04  0.3141580E+01  0.2041517E+02 -0.1570796E+01  0.1565413E-04  0.1636704E+01
  0.3120000E+01  0.2761034E+06 -0.1570794E+01  0.1299890E-02 -0.2966208E+01  0.3176760E+02  0.9862153E-07  0.7634528E-02  0.3060878E+01  0.7966039E+06 -0.1570794E+01  0.2377886E+01 -0.1572386E+01  0.2336758E+02 -0.1570796E+01  0.7450581E-07  0.3141593E+01  0.1487044E+02  0.3141593E+01  0.1761317E-04  0.0000000E+00  0.1596344E+02 -0.1570797E+01  0.6423857E-05  0.1217269E+01