VARIABLES="w (rad/s)"  
"A   1   1" "B   1   1"
"A   1   2" "B   1   2"
"A   1   3" "B   1   3"
"A   1   4" "B   1   4"
"A   1   5" "B   1   5"
"A   1   6" "B   1   6"
"A   2   1" "B   2   1"
"A   2   2" "B   2   2"
"A   2   3" "B   2   3"
"A   2   4" "B   2   4"
"A   2   5" "B   2   5"
"A   2   6" "B   2   6"
Zone t="Motion of body    1 in DoF   1",I=   500,F=POINT
  0.4000000E-01  0.2514897E+07  0.6798368E+02  0.2709631E-03 -0.1874147E-07  0.1515442E+01  0.9133458E-03 -0.9712219E-02  0.8434057E-07 -0.1677254E+07 -0.5215158E+02 -0.6264372E+01  0.4163258E-04  0.3218232E+06  0.1107598E+02  0.0000000E+00 -0.5960464E-09 -0.5336304E+00 -0.1588964E-03  0.1190186E-02  0.3546476E-07  0.2055896E+06  0.7429886E+01  0.4096832E+00 -0.4331767E-05
  0.8000000E-01  0.2508714E+07  0.5421268E+03 -0.1119310E-04 -0.1520653E-06  0.1298401E+01  0.5907135E-02 -0.2914429E-02 -0.4851818E-05 -0.1682376E+07 -0.4173072E+03 -0.1191574E+01 -0.3781977E-03  0.3216121E+06  0.8844480E+02  0.0000000E+00  0.0000000E+00 -0.9268188E+00 -0.2643814E-02  0.7781982E-03  0.1692772E-06  0.2054349E+06  0.5931441E+02 -0.6291199E-01  0.3157616E-04
  0.1200000E+00  0.2526118E+07  0.1858449E+04 -0.3125326E-03  0.3514071E-06  0.1240295E+01  0.1678722E-01 -0.2372742E-02  0.1055002E-04 -0.1690217E+07 -0.1424249E+04 -0.1385002E+01 -0.2097893E-02  0.3240308E+06  0.3027196E+03  0.1525879E-04  0.1430511E-07 -0.9180908E+00 -0.7293148E-02  0.2365112E-03 -0.2861023E-06  0.2070486E+06  0.2030295E+03  0.2759552E-01  0.3002715E-03
  0.1600000E+00  0.2548099E+07  0.4492848E+04  0.3329288E-03 -0.1139868E-05  0.1365051E+01  0.2062195E-01 -0.2066803E-01  0.2483368E-04 -0.1699467E+07 -0.3422984E+04 -0.7664507E+01 -0.1584840E-01  0.3270324E+06  0.7301580E+03  0.0000000E+00 -0.3814697E-07 -0.9703369E+00  0.8227539E-03  0.3128052E-03 -0.2288818E-06  0.2090538E+06  0.4896693E+03 -0.3385162E+00  0.4662323E-03
  0.2000000E+00  0.2575110E+07  0.8990411E+04 -0.2185162E-03 -0.1256731E-05  0.1298462E+01 -0.1012421E-01 -0.9384155E-03 -0.7772445E-05 -0.1709562E+07 -0.6795270E+04 -0.1186886E+01 -0.2343870E-01  0.3306292E+06  0.1456696E+04  0.0000000E+00  0.1430511E-06 -0.9748535E+00 -0.4539489E-03  0.9765625E-03 -0.3385544E-05  0.2114588E+06  0.9768699E+03  0.7757568E-01 -0.5568981E-03
  0.2400000E+00  0.2606204E+07  0.1597761E+05  0.3675100E-03  0.3515874E-05  0.1218018E+01  0.7741241E-02  0.1899719E-02  0.4302978E-04 -0.1719797E+07 -0.1195759E+05 -0.1766645E+01 -0.1037497E-01  0.3346622E+06  0.2579151E+04  0.1525879E-04  0.0000000E+00 -0.8702393E+00 -0.3087478E-01  0.9307861E-03  0.1716614E-05  0.2141542E+06  0.1729477E+04 -0.1704025E+00 -0.5390167E-04
  0.2800000E+00  0.2641142E+07  0.2618956E+05  0.8854326E-03  0.7966849E-05  0.1438416E+01  0.1379257E-01 -0.3540039E-02 -0.4072189E-04 -0.1729853E+07 -0.1936728E+05  0.2223106E+01 -0.9384532E-01  0.3390711E+06  0.4208626E+04 -0.1525879E-04  0.4005432E-06 -0.1054871E+01 -0.2717178E-01  0.1022339E-02  0.2670288E-05  0.2170995E+06  0.2821972E+04 -0.1752396E+00  0.1231003E-02
  0.3200000E+00  0.2679534E+07  0.4049077E+05  0.7171816E-03  0.6851926E-06  0.1111084E+01 -0.4723999E-01 -0.1678467E-01  0.1640320E-03 -0.1739183E+07 -0.2952322E+05 -0.1860825E+01  0.5059173E-01  0.3437899E+06  0.6472694E+04  0.0000000E+00 -0.3051758E-06 -0.1012817E+01  0.1708618E-01 -0.1220703E-03  0.2593994E-05  0.2202507E+06  0.4339759E+04 -0.3158493E+00 -0.6856384E-02
  0.3600000E+00  0.2721113E+07  0.5990807E+05  0.4120220E-03 -0.5481361E-05  0.1119385E+01 -0.5539856E-02  0.1288605E-01  0.1038551E-03 -0.1746996E+07 -0.4296535E+05  0.2984879E+01  0.8183042E-01  0.3487350E+06  0.9518828E+04 -0.1525879E-04 -0.3433227E-06 -0.9556274E+00 -0.4438888E-01 -0.3814697E-03 -0.7896423E-05  0.2235525E+06  0.6381533E+04  0.2633057E+00 -0.1314754E-01
  0.3999999E+00  0.2765331E+07  0.8565059E+05  0.5190008E-03  0.1148337E-04  0.1201477E+01  0.1378784E-01 -0.9620667E-02  0.3696441E-03 -0.1752839E+07 -0.6027295E+05  0.5612040E+01  0.7408184E-01  0.3537899E+06  0.1351540E+05  0.0000000E+00  0.7629394E-06 -0.1030579E+01 -0.2031860E-01 -0.7476807E-03  0.2975463E-04  0.2269249E+06  0.9059969E+04  0.1407089E+00 -0.7086562E-02
  0.4400000E+00  0.2811600E+07  0.1191471E+06 -0.5870271E-03  0.4183525E-04  0.1325989E+01 -0.1887268E-01  0.1395416E-01  0.6680297E-03 -0.1755569E+07 -0.8203415E+05 -0.1746311E+00 -0.2818304E+00  0.3588288E+06  0.1865509E+05 -0.1525879E-04 -0.8392333E-06 -0.1129700E+01 -0.4256256E-01 -0.9460449E-03  0.8937835E-04  0.2302836E+06  0.1250395E+05 -0.2672882E+00  0.1631302E-01
  0.4800000E+00  0.2859008E+07  0.1620688E+06 -0.3047962E-03 -0.1578453E-04  0.1192444E+01  0.1074426E+00  0.2223969E-01  0.1544495E-02 -0.1754376E+07 -0.1088481E+06  0.3673195E+01 -0.7622501E+00  0.3636798E+06  0.2515454E+05  0.0000000E+00  0.1831055E-05 -0.1251770E+01 -0.9562500E-01 -0.1678467E-03  0.5493164E-05  0.2335135E+06  0.1685823E+05  0.1696777E-01  0.2494812E-02
  0.5200000E+00  0.2906376E+07  0.2163516E+06 -0.3587879E-03 -0.2241930E-04  0.1442200E+01  0.8962493E-01  0.4188538E-02 -0.6446838E-04 -0.1748137E+07 -0.1412697E+06 -0.2397774E+01  0.5425014E-02  0.3681344E+06  0.3325439E+05 -0.1525879E-04 -0.1983643E-05 -0.1145386E+01 -0.4564758E-01  0.4882812E-03  0.3868103E-04  0.2364740E+06  0.2228353E+05 -0.2388153E+00  0.2739510E-01
  0.5600000E+00  0.2951864E+07  0.2841322E+06  0.3720775E-03 -0.5515557E-04  0.1383606E+01  0.1332239E+00  0.1006317E-01 -0.2478027E-03 -0.1735026E+07 -0.1796800E+06 -0.4098091E+00  0.1973354E+00  0.3718899E+06  0.4320377E+05  0.0000000E+00 -0.2136230E-05 -0.1247986E+01 -0.7629761E-01 -0.1342773E-02  0.1495361E-04  0.2389632E+06  0.2894596E+05  0.2034149E+00 -0.3642166E-01
  0.6000000E+00  0.2993455E+07  0.3678215E+06  0.1324512E-03  0.6379051E-04  0.1292847E+01  0.1946594E+00  0.7926941E-02  0.1825333E-02 -0.1713775E+07 -0.2243193E+06 -0.4376064E+01 -0.2713080E-01  0.3746087E+06  0.5526486E+05  0.0000000E+00 -0.2288818E-05 -0.1176758E+01 -0.1454681E+00 -0.1846313E-02 -0.1602173E-04  0.2407537E+06  0.3702034E+05 -0.1111450E+00 -0.1819038E-01
  0.6400000E+00  0.3028226E+07  0.4698898E+06  0.6617163E-04 -0.1268372E-03  0.1389587E+01  0.3145996E+00  0.7553101E-03  0.1148682E-02 -0.1682341E+07 -0.2749962E+06  0.2658863E+00  0.1574615E+00  0.3758618E+06  0.6967723E+05  0.0000000E+00 -0.4882812E-05 -0.1270569E+01 -0.2012500E+00  0.5187988E-03 -0.5859375E-04  0.2415590E+06  0.4666574E+05  0.2612305E+00 -0.7187500E-01
  0.6800000E+00  0.3052758E+07  0.5928103E+06  0.7334142E-04 -0.9609119E-04  0.1540466E+01  0.4942908E+00 -0.6721497E-02  0.4370880E-02 -0.1639093E+07 -0.3310478E+06 -0.4198439E+01 -0.8807061E+00  0.3751807E+06  0.8664315E+05  0.1525879E-04  0.0000000E+00 -0.1374268E+01 -0.2098853E+00  0.1266479E-02 -0.4928589E-04  0.2410660E+06  0.5801638E+05  0.1574707E-01 -0.8046310E-01
  0.7200000E+00  0.3062370E+07  0.7384971E+06  0.6487793E-03 -0.2183015E-03  0.1440857E+01  0.6433813E+00 -0.1518250E-02  0.5542602E-02 -0.1581912E+07 -0.3909189E+06 -0.6634081E+01  0.4800483E+00  0.3719043E+06  0.1062343E+06  0.0000000E+00  0.0000000E+00 -0.1342346E+01 -0.3475415E+00  0.1190186E-02 -0.9063720E-04  0.2388320E+06  0.7111805E+05  0.3372192E-02  0.5703278E-01
  0.7599999E+00  0.3052882E+07  0.9087262E+06 -0.6802065E-03  0.1279849E-03  0.1409119E+01  0.7330956E+00 -0.9963989E-02 -0.4421234E-02 -0.1509239E+07 -0.4522248E+06 -0.3272196E+01  0.6463648E+00  0.3654773E+06  0.1284447E+06  0.1525879E-04  0.5798339E-05 -0.1292664E+01 -0.3531189E+00  0.1449585E-02 -0.4638671E-04  0.2344853E+06  0.8596429E+05 -0.5770569E+00 -0.7579299E-01
  0.8000000E+00  0.3015752E+07  0.1101169E+07 -0.7944899E-03  0.5554160E-03  0.1273926E+01  0.9585938E+00 -0.4272461E-03 -0.4501343E-02 -0.1420569E+07 -0.5106696E+06 -0.2803995E+01  0.8137314E+00  0.3550658E+06  0.1527256E+06  0.0000000E+00  0.0000000E+00 -0.1303650E+01 -0.4946045E+00 -0.1251221E-02 -0.5187988E-03  0.2274727E+06  0.1021860E+06  0.4103088E+00  0.5034485E-01
  0.8400000E+00  0.2948490E+07  0.1315245E+07 -0.5109905E-03 -0.8063220E-04  0.1174866E+01  0.1088196E+01 -0.1045227E-02  0.1877747E-02 -0.1315978E+07 -0.5616121E+06 -0.4782036E+01 -0.6247152E+00  0.3403587E+06  0.1786456E+06 -0.1525879E-04 -0.6408691E-05 -0.1176025E+01 -0.5126697E+00  0.6713867E-03  0.6408691E-05  0.2175868E+06  0.1194916E+06 -0.3050232E-01  0.1399914E+00
  0.8800000E+00  0.2845566E+07  0.1544930E+07  0.1238981E-03  0.3631668E-03  0.9687500E+00  0.1340491E+01  0.1831055E-02  0.4176025E-02 -0.1197841E+07 -0.5986741E+06  0.4240652E+01  0.6764473E-01  0.3209809E+06  0.2050993E+06  0.7629395E-05 -0.1342773E-04 -0.1119202E+01 -0.5817700E+00  0.2593994E-03  0.3222656E-03  0.2045774E+06  0.1371374E+06  0.2638626E+00 -0.1891565E+00
  0.9200000E+00  0.2704485E+07  0.1781627E+07  0.1947775E-03 -0.3526821E-03  0.7180786E+00  0.1228782E+01  0.7156372E-02 -0.2807617E-02 -0.1069996E+07 -0.6147387E+06  0.7075434E+01 -0.1404395E+01  0.2970065E+06  0.2306874E+06  0.1525879E-04  0.0000000E+00 -0.8272705E+00 -0.4672437E+00 -0.1525879E-03  0.2316284E-03  0.1885023E+06  0.1541872E+06  0.1150970E+00 -0.7042908E-01
  0.9600000E+00  0.2526039E+07  0.2014039E+07  0.4119608E-03 -0.3066977E-03  0.4979858E+00  0.1423418E+01 -0.4028320E-02 -0.9396972E-02 -0.9387739E+06 -0.6031994E+06  0.4099293E+01  0.5351808E+01  0.2690103E+06  0.2537670E+06 -0.7629395E-05  0.0000000E+00 -0.6572266E+00 -0.4467773E+00 -0.1541138E-02  0.2783203E-03  0.1697488E+06  0.1695417E+06 -0.2500305E+00 -0.2377441E-01
  0.1000000E+01  0.2314828E+07  0.2229048E+07 -0.3903750E-03  0.1102783E-03  0.2263794E+00  0.1672913E+01 -0.2622223E-01  0.1922607E-02 -0.8121953E+06 -0.5591273E+06 -0.2929707E+01  0.4126733E+01  0.2380580E+06  0.2726222E+06 -0.7629395E-05 -0.7629395E-05 -0.5562134E+00 -0.3790283E+00 -0.1678467E-03 -0.1373291E-03  0.1490348E+06  0.1820541E+06  0.5747986E-01  0.2718811E+00
  0.1040000E+01  0.2079371E+07  0.2413823E+07  0.1819045E-03 -0.3326918E-03 -0.3587341E+00  0.1200659E+01  0.7629395E-04  0.4340210E-02 -0.6988362E+06 -0.4803873E+06 -0.7466459E+00  0.4729085E+01  0.2056615E+06  0.2857861E+06  0.7629395E-05  0.1586914E-04 -0.1889648E+00 -0.1371094E+00 -0.6332397E-03  0.3015136E-03  0.1273722E+06  0.1907448E+06 -0.1472626E+00 -0.5721698E+00
  0.1080000E+01  0.1831022E+07  0.2557702E+07  0.2508404E-03  0.5297710E-04 -0.7551575E+00  0.6396020E+00 -0.1777649E-02 -0.1266449E-01 -0.6062762E+06 -0.3678689E+06 -0.1092904E+01  0.1250432E+01  0.1735769E+06  0.2922997E+06 -0.7629395E-05  0.8239746E-05  0.1986694E+00  0.3561548E+00 -0.1754761E-03  0.4284668E-03  0.1059402E+06  0.1949810E+06  0.1002808E+00  0.3407959E-01
  0.1120000E+01  0.1582301E+07  0.2653912E+07 -0.1390121E-03 -0.2469349E-03 -0.1131470E+01  0.2096924E+00  0.1219940E-01  0.1520996E-02 -0.5404134E+06 -0.2263561E+06  0.9207706E+00 -0.4896724E+01  0.1435153E+06  0.2918648E+06 -0.7629395E-05  0.1708984E-04  0.4125061E+00  0.5796191E+00  0.5340576E-03  0.9826659E-03  0.8588175E+05  0.1945688E+06  0.1443481E+00 -0.1849634E+00
  0.1160000E+01  0.1344998E+07  0.2700340E+07 -0.1005124E-03  0.5375979E-03 -0.1144684E+01 -0.1705945E+00  0.6244659E-02 -0.7000427E-02 -0.5043118E+06 -0.6353137E+05 -0.3562708E+01  0.4104609E+00  0.1168844E+06  0.2848379E+06  0.0000000E+00  0.0000000E+00  0.4306030E+00  0.5864428E+00 -0.6103516E-04 -0.4513550E-03  0.6813616E+05  0.1897537E+06 -0.1004562E+00 -0.1172372E+00
  0.1200000E+01  0.1127919E+07  0.2700327E+07  0.1331286E-03 -0.4383429E-03 -0.1188690E+01 -0.5995239E+00 -0.3547668E-03 -0.1074829E-01 -0.4977742E+06  0.1121630E+06 -0.5441484E+00 -0.1456480E+01  0.9454205E+05  0.2721930E+06  0.1907349E-05 -0.9155273E-05  0.5278320E+00  0.8485107E+00 -0.3433228E-04  0.9155273E-04  0.5327195E+05  0.1811887E+06 -0.1062393E-01  0.3970276E+00
  0.1240000E+01  0.9375974E+06  0.2659070E+07 -0.1162442E-03 -0.1228920E-03 -0.1081848E+01 -0.1018398E+01 -0.7514954E-03  0.6499328E-02 -0.5186058E+06  0.2918372E+06 -0.1103895E+01 -0.6246949E+01  0.7697294E+05  0.2551961E+06  0.1907349E-05 -0.9460448E-05  0.5458374E+00  0.9503588E+00 -0.7629395E-04  0.2175903E-03  0.4160964E+05  0.1697304E+06  0.2260590E-01 -0.2262750E+00
  0.1280000E+01  0.7767631E+06  0.2584558E+07  0.4777353E-04 -0.1294285E-04 -0.9895782E+00 -0.1132109E+01  0.2750397E-02  0.5234374E-02 -0.5627168E+06  0.4677545E+06  0.1698308E+01  0.1508511E+01  0.6412262E+05  0.2352706E+06  0.9536743E-06 -0.9765624E-05  0.5198212E+00  0.9307421E+00  0.1907349E-04  0.2929687E-03  0.3310823E+05  0.1563334E+06 -0.5951881E-01 -0.2832031E-01
  0.1320000E+01  0.6456867E+06  0.2485041E+07 -0.4480383E-04  0.2851391E-03 -0.7721405E+00 -0.8626245E+00 -0.3211975E-02 -0.4879303E-02 -0.6251548E+06  0.6333622E+06 -0.7412558E+00  0.6011034E+00  0.5562798E+05  0.2136966E+06  0.0000000E+00  0.0000000E+00  0.4521790E+00  0.7280383E+00 -0.1907349E-04 -0.3524780E-04  0.2752077E+05  0.1418549E+06  0.8177948E-01  0.5559082E-01
  0.1360000E+01  0.5426495E+06  0.2368184E+07  0.2675151E-04 -0.1910481E-03 -0.4385376E+00 -0.4032934E+00  0.8335114E-03 -0.3673095E-02 -0.7007726E+06  0.7845206E+06 -0.7629938E+00 -0.2071383E+01  0.5092281E+05  0.1915465E+06  0.0000000E+00 -0.5187988E-05  0.2648773E+00  0.4506079E+00  0.1010895E-03 -0.7781982E-04  0.2446545E+05  0.1270074E+06 -0.9668350E-02 -0.5548553E-01
  0.1400000E+01  0.4648641E+06  0.2240698E+07 -0.5527545E-05  0.1963083E-03 -0.2413788E+00 -0.1843994E+00 -0.2231598E-02 -0.1351166E-02 -0.7850746E+06  0.9181618E+06 -0.2929187E+00  0.3187109E+01  0.4935613E+05  0.1697322E+06  0.0000000E+00  0.1068115E-04  0.2031403E+00  0.3253906E+00  0.3719330E-03 -0.1815796E-03  0.2350349E+05  0.1124026E+06  0.2066803E-01  0.8288573E-01
  0.1440000E+01  0.4091994E+06  0.2107988E+07  0.3667086E-04 -0.1207323E-03 -0.2319031E+00  0.7848632E-01 -0.4348755E-03 -0.1972046E-02 -0.8739534E+06  0.1033003E+07 -0.5459352E+00  0.3398720E+01  0.5028170E+05  0.1489191E+06  0.0000000E+00  0.0000000E+00  0.1582947E+00  0.2003906E+00  0.3051758E-03 -0.4174804E-03  0.2420015E+05  0.9848877E+05 -0.6202698E-02  0.1041504E-01
  0.1480000E+01  0.3720593E+06  0.1974220E+07 -0.1348933E-04  0.7555121E-07 -0.4098053E+00 -0.6418090E-01 -0.6313324E-03 -0.1784057E-02 -0.9640726E+06  0.1128887E+07  0.3324699E-01  0.1242217E+01  0.5309304E+05  0.1295077E+06  0.1907349E-05  0.8468627E-05  0.2194672E+00  0.2174743E+00 -0.1144409E-04  0.2484130E-03  0.2614976E+05  0.8552787E+05  0.2523422E-01  0.8494597E-01
  0.1520000E+01  0.3503787E+06  0.1842712E+07 -0.1751829E-04 -0.6245739E-04 -0.4813690E+00 -0.1742749E+00  0.4280090E-02  0.2733917E-02 -0.1052602E+07  0.1205907E+07 -0.6102719E+00  0.2316822E+01  0.5728515E+05  0.1117642E+06 -0.1907349E-05  0.2899170E-05  0.2862091E+00  0.2592785E+00 -0.1506805E-03 -0.2116394E-03  0.2901406E+05  0.7369612E+05  0.1349258E-01  0.8703887E-01
  0.1560000E+01  0.3411574E+06  0.1715419E+07  0.3532317E-04  0.1214571E-03 -0.4683533E+00 -0.1099017E+00 -0.1762390E-02 -0.3091507E-02 -0.1137637E+07  0.1265158E+07 -0.7051597E+00  0.3728162E+01  0.6241037E+05  0.9577790E+05  0.0000000E+00 -0.2975464E-05  0.2798157E+00  0.2102344E+00  0.2021790E-03  0.8926391E-05  0.3249424E+05  0.6304667E+05  0.2473259E-01  0.6925094E-01
  0.1600000E+01  0.3420075E+06  0.1594182E+07 -0.3481863E-04 -0.2820198E-03 -0.4024811E+00 -0.3494873E-01  0.1342773E-02 -0.2258301E-02 -0.1217672E+07  0.1308203E+07 -0.4022951E+00  0.1795497E+01  0.6809965E+05  0.8161430E+05  0.3814697E-05 -0.1525879E-05  0.2318726E+00  0.1511718E+00 -0.1945496E-03  0.3509521E-03  0.3634077E+05  0.5362632E+05  0.2395630E-01 -0.7033385E-01
  0.1640000E+01  0.3507330E+06  0.1479720E+07  0.5579076E-04 -0.5914640E-05 -0.4573517E+00  0.1174896E-01  0.2670288E-02 -0.2651024E-02 -0.1291723E+07  0.1337023E+07  0.5274053E+00 -0.2905420E+01  0.7406847E+05  0.6918971E+05  0.0000000E+00  0.0000000E+00  0.2179413E+00  0.8733520E-01 -0.2517700E-03  0.9384155E-04  0.4036536E+05  0.4537635E+05 -0.6156921E-02  0.5642067E-01
  0.1680000E+01  0.3656567E+06  0.1372724E+07 -0.1546182E-04 -0.1258658E-03 -0.4548035E+00  0.2154602E-01 -0.2075195E-02  0.6264496E-03 -0.1359022E+07  0.1353080E+07  0.1010309E+01  0.3118013E+00  0.8011930E+05  0.5842336E+05  0.0000000E+00  0.1602173E-05  0.2156677E+00  0.6103637E-01 -0.2136230E-03  0.9613037E-05  0.4443692E+05  0.3824006E+05  0.3392982E-01 -0.3258499E-01
  0.1720000E+01  0.3852355E+06  0.1273496E+07  0.5638157E-04 -0.5647624E-04 -0.3942719E+00  0.4999695E-01 -0.2990723E-02 -0.6708908E-03 -0.1419337E+07  0.1358647E+07  0.2382174E+00 -0.3924650E+00  0.8609823E+05  0.4916604E+05  0.0000000E+00  0.2460480E-05  0.1500854E+00  0.2718994E-01 -0.2746582E-03  0.1476288E-04  0.4845332E+05  0.3211562E+05 -0.7907867E-02  0.8513260E-02
  0.1760000E+01  0.4083623E+06  0.1182031E+07 -0.3599381E-04 -0.1193559E-03 -0.3482666E+00  0.6707824E-01  0.1012421E-01 -0.6781006E-03 -0.1472506E+07  0.1355517E+07  0.7287283E+00 -0.1120418E+00  0.9189188E+05  0.4126350E+05  0.0000000E+00  0.0000000E+00  0.1262207E+00  0.1839599E-01 -0.6408691E-03  0.1208496E-03  0.5234012E+05  0.2689514E+05 -0.3453064E-01  0.3175155E-01
  0.1800000E+01  0.4340558E+06  0.1098989E+07  0.1497680E-03 -0.1918204E-03 -0.3354187E+00  0.5241852E-01  0.1293182E-02 -0.3484726E-03 -0.1518650E+07  0.1346122E+07  0.4799948E+00  0.9776136E-01  0.9741188E+05  0.3460944E+05  0.3814697E-05  0.8583069E-06  0.9420776E-01  0.1513367E-01 -0.1907349E-04  0.8583069E-05  0.5603665E+05  0.2250931E+05  0.7156372E-02 -0.1799183E-01
  0.1840000E+01  0.4614373E+06  0.1024081E+07 -0.1093028E-03  0.6778223E-05 -0.3236389E+00  0.4082275E-01  0.2689362E-02  0.7799911E-03 -0.1557986E+07  0.1332984E+07 -0.9850340E+00  0.6220284E+00  0.1026023E+06  0.2900967E+05 -0.3814697E-05 -0.4386902E-06  0.6576538E-01  0.2246094E-03  0.2288818E-04 -0.4299164E-04  0.5950766E+05  0.1882774E+05  0.8396530E-01  0.9227409E-02
  0.1880000E+01  0.4897828E+06  0.9576541E+06 -0.1761160E-03 -0.4075549E-04 -0.1911316E+00  0.6603996E-01 -0.3166199E-02  0.1640510E-03 -0.1591134E+07  0.1318206E+07 -0.1303877E+01  0.1739586E+01  0.1074492E+06  0.2436486E+05  0.3814697E-05  0.0000000E+00  0.4101562E-01 -0.1181885E-01 -0.5187988E-03 -0.5647659E-04  0.6274500E+05  0.1578235E+05 -0.4888916E-01  0.6992340E-02
  0.1920000E+01  0.5182997E+06  0.8999372E+06 -0.5256140E-04  0.2207984E-04 -0.1328430E+00  0.7853759E-01 -0.5577087E-02  0.2700805E-03 -0.1618959E+07  0.1304266E+07 -0.2830658E+00  0.1515044E+01  0.1119446E+06  0.2053953E+05  0.3814697E-05 -0.4577636E-06  0.1708984E-02 -0.2080810E-01  0.8773804E-03  0.5310058E-04  0.6574354E+05  0.1328182E+05  0.3514099E-01 -0.1053039E-01
  0.1960000E+01  0.5460939E+06  0.8507579E+06  0.1449657E-03  0.6751576E-04 -0.7940674E-01  0.5994903E-01 -0.1063156E-01  0.2710342E-03 -0.1642784E+07  0.1293201E+07 -0.2228127E+00 -0.1188281E+00  0.1160828E+06  0.1739813E+05  0.3814697E-05 -0.4673004E-06 -0.9582520E-02 -0.2724174E-01 -0.2326965E-03 -0.7944107E-05  0.6850157E+05  0.1123154E+05  0.1121521E-01 -0.1145680E-01
  0.2000000E+01  0.5722822E+06  0.8097435E+06 -0.1176482E-03  0.2937497E-04 -0.3881836E-01  0.4747200E-01 -0.4058838E-02  0.8206367E-03 -0.1664184E+07  0.1286525E+07 -0.1514713E+01  0.1305325E+01  0.1198685E+06  0.1482130E+05 -0.3814697E-05  0.0000000E+00 -0.2072144E-01  0.2632141E-02  0.2365112E-03  0.3337860E-05  0.7102258E+05  0.9551631E+04 -0.6580353E-01  0.1027536E-01
  0.2040000E+01  0.5960496E+06  0.7757555E+06  0.1151986E-03 -0.1018436E-03  0.3979492E-01  0.4356548E-01  0.3669739E-02  0.7188606E-03 -0.1684971E+07  0.1284308E+07 -0.5691280E+00 -0.5286773E+00  0.1233179E+06  0.1270208E+05 -0.7629395E-05  0.1459122E-05 -0.6417847E-01  0.4764519E-02  0.1945496E-03 -0.1507759E-04  0.7331658E+05  0.8174712E+04 -0.5971146E-01  0.1318608E-01
  0.2080000E+01  0.6168859E+06  0.7469200E+06  0.2366665E-05  0.8151115E-04  0.1730347E-01  0.2553345E-01  0.2136230E-03 -0.1394253E-02 -0.1706453E+07  0.1284812E+07 -0.1689676E+01 -0.4093568E+00  0.1264513E+06  0.1095228E+05 -0.3814697E-05  0.0000000E+00 -0.5981445E-01 -0.9963837E-02  0.6484985E-04 -0.2553940E-04  0.7539930E+05  0.7039012E+04 -0.5440903E-01 -0.6101932E-02
  0.2120000E+01  0.6347645E+06  0.7206876E+06  0.4936449E-04  0.8176181E-04  0.9292603E-01  0.1622789E-01 -0.4730225E-02  0.1505222E-02 -0.1729448E+07  0.1284846E+07  0.6558695E+00  0.4715362E+00  0.1293129E+06  0.9476477E+04 -0.3814697E-05 -0.5054474E-06 -0.4638672E-01 -0.1006851E-02 -0.5760193E-03  0.1945972E-04  0.7729980E+05  0.6085009E+04 -0.1134491E+00  0.2597342E-01
  0.2160000E+01  0.6501118E+06  0.6951376E+06 -0.7953821E-04  0.2043100E-03  0.1206055E+00  0.7655754E-02 -0.3131866E-02  0.9180880E-03 -0.1753546E+07  0.1280979E+07  0.5403347E+00  0.1099568E+00  0.1319230E+06  0.8223483E+04  0.0000000E+00  0.5149842E-06 -0.7095337E-01 -0.1296936E-01 -0.6179810E-03 -0.7982254E-05  0.7903313E+05  0.5274687E+04  0.5130768E-02  0.9449959E-03
  0.2200000E+01  0.6636930E+06  0.6686535E+06 -0.1096774E-03 -0.1105558E-03  0.5386353E-01 -0.8275890E-02 -0.4341125E-02 -0.1445055E-03 -0.1777949E+07  0.1270908E+07 -0.3352461E+00 -0.1739390E+01  0.1343236E+06  0.7133354E+04  0.0000000E+00 -0.2622604E-06 -0.3988647E-01 -0.1660108E-01  0.5493164E-03  0.2360344E-05  0.8062798E+05  0.4569918E+04 -0.2339554E-01 -0.1910043E-02
  0.2240000E+01  0.6763104E+06  0.6408734E+06 -0.3344630E-04  0.1283830E-03  0.1022949E+00 -0.4373931E-02  0.4497528E-02  0.5514144E-03 -0.1801442E+07  0.1253696E+07  0.1035519E+01  0.1923085E+01  0.1365398E+06  0.6194334E+04  0.7629395E-05  0.2670288E-06 -0.4968262E-01  0.4157104E-02 -0.1678467E-03 -0.8144378E-05  0.8210055E+05  0.3963605E+04 -0.2014160E-01 -0.5941791E-02
  0.2280000E+01  0.6885572E+06  0.6119226E+06  0.1225093E-03 -0.6269649E-04  0.1651917E+00  0.3602943E-02 -0.3517151E-02 -0.2243686E-03 -0.1822940E+07  0.1229883E+07  0.1007149E+01 -0.1082883E+01  0.1385818E+06  0.5379980E+04  0.0000000E+00  0.0000000E+00 -0.5413818E-01  0.1014130E-01  0.7247925E-04  0.1494884E-05  0.8345552E+05  0.3439483E+04 -0.2561569E-01 -0.1028345E-02
  0.2320000E+01  0.7008042E+06  0.5825099E+06 -0.3466196E-04 -0.1123618E-03  0.1915588E+00  0.1290455E-01 -0.4066467E-02 -0.7038593E-04 -0.1842001E+07  0.1200603E+07 -0.1098681E+01  0.1523657E+01  0.1404782E+06  0.4699949E+04 -0.1144409E-04  0.4148483E-06 -0.9002686E-01 -0.6280250E-02  0.3013611E-03  0.3871918E-05  0.8471347E+05  0.3004245E+04 -0.5799866E-01 -0.1311197E-02
  0.2360000E+01  0.7132512E+06  0.5530966E+06 -0.9670993E-04  0.1349720E-03  0.2244263E+00  0.1453596E-01  0.8445740E-02  0.2536929E-03 -0.1858275E+07  0.1167003E+07  0.1856432E+00  0.1450600E+00  0.1422399E+06  0.4132308E+04 -0.1144409E-04  0.2813339E-06 -0.1165466E+00 -0.5266008E-02  0.1525879E-04  0.1104236E-04  0.8588150E+05  0.2642741E+04 -0.4085922E-01  0.1025040E-02
  0.2400000E+01  0.7257849E+06  0.5241836E+06  0.1041965E-03 -0.7063532E-04  0.3836670E+00  0.1669636E-01 -0.4577637E-04  0.1972675E-03 -0.1871292E+07  0.1130859E+07 -0.1926853E+01  0.4602798E+00  0.1438440E+06  0.3637112E+04  0.1144409E-04  0.0000000E+00 -0.1983337E+00 -0.4879761E-02  0.4920959E-03  0.1523495E-04  0.8694352E+05  0.2327665E+04 -0.6755066E-01  0.3332519E-02
  0.2440000E+01  0.7385314E+06  0.4962426E+06 -0.3457424E-04 -0.8602073E-04  0.3751526E+00  0.1416831E-01 -0.6713867E-03 -0.6682753E-04 -0.1881762E+07  0.1093042E+07  0.3610373E+00  0.5356055E+00  0.1453522E+06  0.3227122E+04 -0.1144409E-04  0.0000000E+00 -0.2079163E+00 -0.8589410E-02  0.1296997E-03 -0.1119852E-04  0.8794295E+05  0.2067719E+04  0.5408096E-01  0.5100417E-03
  0.2480000E+01  0.7513862E+06  0.4695897E+06 -0.1712487E-04 -0.3734333E-04  0.4287415E+00  0.5658826E-02 -0.9918213E-04  0.8758306E-04 -0.1889662E+07  0.1054619E+07 -0.1488631E+01 -0.1963836E+00  0.1467563E+06  0.2885374E+04 -0.7629395E-05 -0.2217293E-06 -0.2581482E+00 -0.4298591E-02  0.1678467E-03 -0.1197338E-04  0.8887373E+05  0.1851189E+04  0.1306000E+00  0.8013296E-03
  0.2520000E+01  0.7642658E+06  0.4444771E+06 -0.3037695E-04 -0.3653384E-04  0.4355164E+00  0.5079588E-02 -0.1945496E-02  0.1151311E-03 -0.1895220E+07  0.1016726E+07  0.8042316E+00  0.1105782E+01  0.1480618E+06  0.2591073E+04  0.7629395E-05  0.1502037E-06 -0.2586975E+00 -0.2217006E-02 -0.2670288E-04  0.0000000E+00  0.8973902E+05  0.1664737E+04  0.3671265E-01  0.1155817E-03
  0.2560000E+01  0.7771178E+06  0.4210457E+06  0.8211657E-04 -0.5083393E-04  0.4682007E+00 -0.3364868E-02  0.8239746E-03  0.6118774E-04 -0.1898742E+07  0.9800589E+06  0.2158553E+01 -0.4982021E+00  0.1492790E+06  0.2334211E+04  0.3814697E-05  0.7629394E-07 -0.2610474E+00  0.1563110E-02  0.1945496E-03 -0.3509521E-05  0.9054454E+05  0.1502202E+04 -0.1700478E+00 -0.7460785E-03
  0.2600000E+01  0.7898509E+06  0.3997846E+06  0.6858591E-04 -0.4334393E-04  0.5335693E+00  0.3502369E-04 -0.8056641E-02  0.2262980E-03 -0.1900533E+07  0.9457604E+06 -0.2707071E+00  0.2506693E+00  0.1504159E+06  0.2130508E+04  0.3814697E-05  0.0000000E+00 -0.2752991E+00 -0.3358245E-02  0.5073547E-03  0.1549721E-05  0.9129714E+05  0.1374003E+04  0.1301041E+00  0.1267129E-02
  0.2640000E+01  0.8022996E+06  0.3805044E+06  0.4729925E-04 -0.4543560E-04  0.4447327E+00  0.3886699E-02 -0.5550385E-02 -0.4972457E-04 -0.1900851E+07  0.9143497E+06  0.1273832E+00 -0.2057242E+01  0.1514672E+06  0.1942983E+04 -0.3814697E-05  0.0000000E+00 -0.2590637E+00 -0.2094727E-02 -0.1907349E-03  0.7395744E-05  0.9199276E+05  0.1255749E+04  0.1385117E-01  0.1708496E-03
  0.2680000E+01  0.8143648E+06  0.3634901E+06  0.5263719E-04  0.8621623E-04  0.4700012E+00  0.7852521E-02 -0.1013565E-01 -0.1373768E-04 -0.1900266E+07  0.8865363E+06  0.7512798E+00 -0.8055631E+00  0.1524523E+06  0.1788588E+04 -0.7629395E-05 -0.7987022E-07 -0.2241821E+00 -0.1995478E-02  0.1525879E-04  0.5710721E-05  0.9264400E+05  0.1158405E+04  0.1542206E+00  0.2139484E-02
  0.2720000E+01  0.8259008E+06  0.3486218E+06  0.3117725E-04  0.4171974E-04  0.5480957E+00  0.6813125E-02 -0.4562378E-02  0.1361847E-04 -0.1899357E+07  0.8624771E+06  0.1607677E+01  0.4729989E+00  0.1533838E+06  0.1654379E+04 -0.3814697E-05  0.0000000E+00 -0.2882080E+00 -0.3001251E-02 -0.3166199E-03 -0.2269745E-05  0.9326050E+05  0.1072587E+04 -0.1752319E+00 -0.1021669E-02
  0.2760000E+01  0.8366974E+06  0.3355508E+06 -0.1124370E-03 -0.1281206E-03  0.4443359E+00  0.5910143E-02  0.5229950E-02 -0.1742148E-03 -0.1898585E+07  0.8417104E+06 -0.3509378E+00 -0.9517702E+00  0.1542552E+06  0.1527646E+04  0.7629395E-05  0.0000000E+00 -0.2578125E+00 -0.4066658E-02 -0.4577637E-04 -0.2467632E-06  0.9383769E+05  0.9916902E+03 -0.8586884E-01 -0.1187507E-02
  0.2800000E+01  0.8467036E+06  0.3237475E+06  0.3760151E-04 -0.5376207E-04  0.5707397E+00  0.5767155E-02 -0.8087158E-03  0.1392305E-03 -0.1898305E+07  0.8228221E+06  0.1644855E+01 -0.1535041E+00  0.1550749E+06  0.1416273E+04  0.7629395E-05 -0.4172325E-07 -0.2568970E+00 -0.1532412E-02 -0.1296997E-03 -0.2253056E-05  0.9438091E+05  0.9205125E+03  0.6472778E-01 -0.8428097E-04
  0.2840000E+01  0.8559684E+06  0.3129148E+06 -0.1633760E-03  0.1160248E-03  0.4534607E+00  0.5767274E-02 -0.4707336E-02  0.2992821E-03 -0.1898694E+07  0.8051906E+06  0.1665182E+00 -0.1791278E+00  0.1558562E+06  0.1315840E+04  0.3814697E-05  0.8463859E-07 -0.2669373E+00 -0.7167196E-03  0.5035400E-03  0.2454519E-05  0.9489870E+05  0.8559526E+03 -0.1939392E-01 -0.1045879E-02
  0.2880000E+01  0.8645707E+06  0.3021552E+06 -0.4017004E-04 -0.6774822E-04  0.4838867E+00  0.7819691E-02 -0.1754761E-03  0.3759384E-04 -0.1899514E+07  0.7870256E+06 -0.1773003E+01 -0.1406597E-01  0.1565869E+06  0.1218398E+04  0.3814697E-05  0.0000000E+00 -0.2670898E+00 -0.1286087E-02 -0.2441406E-03 -0.2574920E-05  0.9538204E+05  0.7933226E+03  0.4879761E-01 -0.3093767E-03
  0.2920000E+01  0.8726341E+06  0.2915242E+06  0.3499804E-03 -0.1606693E-05  0.5302734E+00  0.7834137E-02  0.4814148E-02 -0.1238552E-03 -0.1900455E+07  0.7677981E+06  0.8861256E-01 -0.1585794E+00  0.1572736E+06  0.1134899E+04  0.3814697E-05 -0.4351138E-07 -0.2397156E+00 -0.2247276E-02  0.5264282E-03  0.3524422E-05  0.9583698E+05  0.7394474E+03 -0.1023788E+00 -0.7370829E-04
  0.2960000E+01  0.8803106E+06  0.2806480E+06  0.2672517E-04 -0.3491189E-04  0.4730835E+00  0.9218100E-02  0.5897522E-02  0.1138633E-03 -0.1901309E+07  0.7471711E+06 -0.6981373E+00 -0.7088958E-01  0.1579236E+06  0.1051355E+04  0.1144409E-04 -0.4410743E-07 -0.2578430E+00 -0.1247005E-02  0.3585815E-03 -0.1455545E-05  0.9626731E+05  0.6858023E+03  0.1118622E+00  0.6876790E-03
  0.3000000E+01  0.8877375E+06  0.2696586E+06 -0.2507873E-03  0.6495014E-04  0.4386292E+00  0.1021367E-01  0.3734589E-02 -0.2222434E-03 -0.1901794E+07  0.7254435E+06 -0.4277925E+00  0.1780374E+00  0.1585421E+06  0.9741633E+03  0.0000000E+00 -0.6705522E-07 -0.2753906E+00 -0.1133501E-02 -0.3814697E-03  0.6705522E-07  0.9667659E+05  0.6358837E+03  0.2654800E+00  0.8068978E-04
  0.3040000E+01  0.8950076E+06  0.2586132E+06  0.7438351E-04  0.1209876E-04  0.4715881E+00  0.1097390E-01  0.1331329E-02 -0.4151701E-04 -0.1901842E+07  0.7027316E+06  0.7927551E+00 -0.6305014E-01  0.1591407E+06  0.9030821E+03  0.0000000E+00  0.0000000E+00 -0.2714233E+00 -0.1779003E-02  0.4806519E-03 -0.1200437E-05  0.9707354E+05  0.5893867E+03  0.1440239E+00 -0.4792463E-03
  0.3080000E+01  0.9020958E+06  0.2479226E+06 -0.2395164E-04  0.8510688E-05  0.5135803E+00  0.1181903E-01  0.1211548E-01  0.2822578E-05 -0.1901038E+07  0.6799616E+06 -0.1421743E+01  0.3114314E+00  0.1596874E+06  0.8403696E+03  0.3814697E-05 -0.2294779E-07 -0.2612610E+00 -0.1637371E-02  0.2441406E-03  0.4405975E-05  0.9743596E+05  0.5485552E+03  0.1337471E+00 -0.3759995E-03
  0.3120000E+01  0.9090764E+06  0.2375017E+06  0.2646109E-04  0.1436408E-04  0.4537964E+00  0.1200302E-01  0.5924225E-02  0.1970315E-03 -0.1899697E+07  0.6570984E+06  0.8572626E+00  0.2821683E+00  0.1602178E+06  0.7833315E+03 -0.3814697E-05  0.0000000E+00 -0.2282104E+00 -0.1336169E-02  0.2441406E-03  0.1301765E-05  0.9778777E+05  0.5114330E+03 -0.2662239E+00 -0.5097574E-03