VARIABLES="w (rad/s)"
"abs(F   1   1)" "angle(F   1   1)"
"abs(F   1   2)" "angle(F   1   2)"
"abs(F   1   3)" "angle(F   1   3)"
"abs(F   1   4)" "angle(F   1   4)"
"abs(F   1   5)" "angle(F   1   5)"
"abs(F   1   6)" "angle(F   1   6)"
"abs(F   2   1)" "angle(F   2   1)"
"abs(F   2   2)" "angle(F   2   2)"
"abs(F   2   3)" "angle(F   2   3)"
"abs(F   2   4)" "angle(F   2   4)"
"abs(F   2   5)" "angle(F   2   5)"
"abs(F   2   6)" "angle(F   2   6)"
Zone t="Diffraction force - beta =   0.000 deg",I=   500,F=POINT
  0.4000000E-01  0.1051118E+06 -0.1570101E+01  0.5012828E-04 -0.7709907E+00  0.1201236E+03 -0.2812116E+01  0.4724744E-03  0.1195813E+01  0.8531589E+05  0.1571480E+01  0.9363416E-02  0.1621771E+01  0.1733121E+05 -0.1570101E+01  0.2198111E-05 -0.7086262E+00  0.1013220E+00  0.2428477E+01  0.2294772E-04 -0.6237831E-01  0.1146692E+05 -0.1570092E+01  0.7921823E-03 -0.1550964E+01
  0.8000000E-01  0.2124104E+06 -0.1568014E+01  0.9968890E-04 -0.1662804E+01  0.3747513E+03 -0.2716780E+01  0.6011036E-03  0.7378417E+00  0.1681472E+06  0.1573534E+01  0.5637290E+00 -0.1585310E+01  0.3480212E+05 -0.1568015E+01  0.1915712E-05  0.1664273E+01  0.2641997E+00  0.2746987E+01  0.1158497E-03  0.2726398E+01  0.2303623E+05 -0.1567979E+01  0.1965019E-01 -0.1562446E+01
  0.1200000E+00  0.3213413E+06 -0.1564484E+01  0.2512937E-03  0.2486035E+01  0.7753142E+03 -0.2677290E+01  0.1458589E-02  0.1080135E+01  0.2519598E+06  0.1577012E+01  0.2671316E+00  0.1549535E+01  0.5248104E+05 -0.1564484E+01  0.5928191E-05 -0.1835285E+01  0.6642364E+00  0.2747917E+01  0.2606025E-03 -0.1725454E+01  0.3474619E+05 -0.1564405E+01  0.2509916E-01 -0.1589036E+01
  0.1600000E+00  0.4321443E+06 -0.1559447E+01  0.3015255E-03  0.5478705E+00  0.1263850E+04 -0.2635691E+01  0.7765615E-02  0.1544397E+01  0.3359724E+06  0.1581975E+01  0.1883166E+00 -0.1511013E+01  0.7035850E+05 -0.1559447E+01  0.1263618E-04 -0.3141592E+01  0.9836521E+00  0.2763767E+01  0.1273871E-03 -0.1280863E+01  0.4658918E+05 -0.1559305E+01  0.6292404E-01 -0.1566386E+01
  0.2000000E+00  0.5448782E+06 -0.1552839E+01  0.2372175E-03  0.2790042E+01  0.1845516E+04 -0.2601467E+01  0.4788913E-02  0.1348520E+01  0.4197323E+06  0.1588485E+01  0.1169544E+01 -0.1558109E+01  0.8841440E+05 -0.1552838E+01  0.1638163E-04 -0.1943195E+01  0.1325021E+01  0.2678376E+01  0.6735949E-03 -0.2447172E+01  0.5855213E+05 -0.1552616E+01  0.3874389E-01 -0.1584687E+01
  0.2400000E+00  0.6598533E+06 -0.1544549E+01  0.3523801E-03 -0.9357537E+00  0.2503487E+04 -0.2569901E+01  0.6513787E-02  0.1578483E+01  0.5033032E+06  0.1596653E+01  0.3438870E+00  0.1701148E+01  0.1066614E+06 -0.1544547E+01  0.1791791E-04  0.2701750E+01  0.1652290E+01  0.2483135E+01  0.6083729E-03 -0.2083186E+01  0.7064421E+05 -0.1544227E+01  0.6832354E-02  0.6820076E+00
  0.2800000E+00  0.7774533E+06 -0.1534455E+01  0.1160037E-02 -0.1710219E+01  0.3224179E+04 -0.2539370E+01  0.9694220E-02 -0.1777853E+01  0.5856631E+06  0.1606600E+01  0.6929661E+00 -0.1616661E+01  0.1250937E+06 -0.1534453E+01  0.1684693E-04 -0.2671616E+01  0.2357770E+01  0.2232701E+01  0.5749193E-03 -0.2031476E+01  0.8286247E+05 -0.1534016E+01  0.1570991E+00 -0.1544173E+01
  0.3200000E+00  0.8979411E+06 -0.1522414E+01  0.8527204E-04  0.1736683E+01  0.4004666E+04 -0.2511897E+01  0.5930919E-02  0.1708674E+01  0.6666821E+06  0.1618466E+01  0.1339076E+01  0.1648740E+01  0.1437038E+06 -0.1522411E+01  0.4978840E-04 -0.6597832E+00  0.2951617E+01  0.1926297E+01  0.1140250E-02 -0.1732714E+01  0.9519952E+05 -0.1521837E+01  0.1007662E+00  0.1524532E+01
  0.3600000E+00  0.1021439E+07 -0.1508256E+01  0.4478329E-03  0.6961545E+00  0.4829578E+04 -0.2484892E+01  0.1833654E-01  0.1517540E+01  0.7453398E+06  0.1632420E+01  0.2682519E+01 -0.1608482E+01  0.1624539E+06 -0.1508253E+01  0.1526065E-04 -0.1586420E+01  0.4550799E+01  0.1676136E+01  0.1388059E-02 -0.5224000E-01  0.1076334E+06 -0.1507522E+01  0.2372617E-01  0.1894827E+01
  0.3999999E+00  0.1147836E+07 -0.1491789E+01  0.8509099E-03 -0.2229032E+01  0.5692560E+04 -0.2459220E+01  0.3000170E-01 -0.1478099E+01  0.8217798E+06  0.1648651E+01  0.1172729E+01 -0.1775003E+01  0.1812956E+06 -0.1491788E+01  0.6636074E-04  0.1167438E+01  0.6955616E+01  0.1376091E+01  0.6947176E-03  0.2533791E+01  0.1201284E+06 -0.1490880E+01  0.1407835E+00  0.1659640E+01
  0.4400000E+00  0.1277331E+07 -0.1472790E+01  0.1793996E-03  0.1012644E+01  0.6585892E+04 -0.2434480E+01  0.9895767E-02 -0.1349755E+01  0.8946535E+06  0.1667366E+01  0.2064252E+00  0.6553028E+00  0.2001895E+06 -0.1472790E+01  0.5416878E-04  0.1402753E+01  0.1000981E+02  0.1277695E+01  0.1173424E-02 -0.1947832E+01  0.1326606E+06 -0.1471684E+01  0.5955890E-01  0.1933724E+01
  0.4800000E+00  0.1409901E+07 -0.1451008E+01  0.3188509E-02  0.1384715E+01  0.7485430E+04 -0.2408530E+01  0.2342153E-01 -0.2373211E+01  0.9632303E+06  0.1688825E+01  0.1931049E+01  0.1579109E+01  0.2190312E+06 -0.1451015E+01  0.5472005E-04  0.1351182E+01  0.1475142E+02  0.1272944E+01  0.1454377E-02  0.2040309E+01  0.1451633E+06 -0.1449688E+01  0.2079867E+00 -0.1543396E+01
  0.5200000E+00  0.1545204E+07 -0.1426189E+01  0.1200818E-02 -0.1141786E+00  0.8421843E+04 -0.2386220E+01  0.2573827E-01  0.1740684E+01  0.1026438E+07  0.1713281E+01  0.1591585E+01 -0.1154561E+01  0.2377132E+06 -0.1426199E+01  0.3757041E-04  0.4182243E+00  0.2118684E+02  0.1147013E+01  0.1348985E-02  0.2574375E+01  0.1575575E+06 -0.1424628E+01  0.2990080E+00  0.1509095E+01
  0.5600000E+00  0.1682809E+07 -0.1398010E+01  0.2682286E-03 -0.2810878E+01  0.9345038E+04 -0.2362441E+01  0.8625645E-01 -0.1431948E+01  0.1082426E+07  0.1741003E+01  0.3467007E+01  0.1695230E+01  0.2561145E+06 -0.1398025E+01  0.1084508E-03  0.1987235E+01  0.2784400E+02  0.1119928E+01  0.2000531E-02 -0.1440765E+01  0.1697673E+06 -0.1396184E+01  0.1287544E+00  0.8844702E+00
  0.6000000E+00  0.1822371E+07 -0.1366150E+01  0.1910568E-02 -0.7773913E+00  0.1025976E+05 -0.2338768E+01  0.1754777E-02 -0.4347799E-02  0.1129707E+07  0.1772338E+01  0.1861749E+01  0.1928463E+01  0.2740302E+06 -0.1366186E+01  0.6485687E-04  0.1915799E+01  0.3685326E+02  0.1135720E+01  0.5039704E-02 -0.1795212E+01  0.1816587E+06 -0.1364050E+01  0.2327609E+00  0.1923728E+01
  0.6400000E+00  0.1962314E+07 -0.1330323E+01  0.8949490E-03 -0.2285817E+00  0.1116739E+05 -0.2316339E+01  0.5112510E-01  0.2025901E+01  0.1167801E+07  0.1807584E+01  0.2400747E+01 -0.1636824E+01  0.2911960E+06 -0.1330389E+01  0.7327794E-04  0.6747410E+00  0.4748334E+02  0.1149251E+01  0.7100359E-03 -0.1608413E+01  0.1930509E+06 -0.1327931E+01  0.1578110E+00  0.1884834E+01
  0.6800000E+00  0.2101645E+07 -0.1290207E+01  0.2883331E-02 -0.2929337E+01  0.1203777E+05 -0.2292469E+01  0.1724259E-01 -0.1713648E+01  0.1193452E+07  0.1846997E+01  0.1814502E+01  0.1274599E+01  0.3073693E+06 -0.1290288E+01  0.1076428E-03 -0.1446441E+01  0.6242211E+02  0.1078249E+01  0.3385236E-02 -0.7861949E+00  0.2037807E+06 -0.1287477E+01  0.6019068E-01  0.1794346E+01
  0.7200000E+00  0.2238087E+07 -0.1245487E+01  0.1190960E-02  0.1977284E+01  0.1288093E+05 -0.2269326E+01  0.1647145E-01  0.2328024E+01  0.1204586E+07  0.1890758E+01  0.3746769E+01  0.7353563E+00  0.3221731E+06 -0.1245596E+01  0.1572840E-04  0.1325818E+01  0.7573350E+02  0.1073174E+01  0.4543130E-02 -0.1168771E+01  0.2136041E+06 -0.1242399E+01  0.4607294E+00 -0.1540492E+01
  0.7599999E+00  0.2370343E+07 -0.1195821E+01  0.1888496E-02  0.1725474E+01  0.1366783E+05 -0.2245243E+01  0.5738298E-01 -0.2635508E+01  0.1198594E+07  0.1939286E+01  0.3289543E+01 -0.1995549E+01  0.3352117E+06 -0.1196005E+01  0.9650506E-04 -0.1249046E+01  0.9256779E+02  0.1102081E+01  0.1994762E-02  0.8829139E+00  0.2222563E+06 -0.1192391E+01  0.1740257E+00 -0.1632849E+01
  0.8000000E+00  0.2491778E+07 -0.1141601E+01  0.8163667E-03  0.1337653E+01  0.1442757E+05 -0.2223881E+01  0.4167819E-01  0.7317198E+00  0.1174476E+07  0.1992203E+01  0.6215677E+01 -0.1138947E+01  0.3457053E+06 -0.1141901E+01  0.1705985E-04  0.2034444E+01  0.1133886E+03  0.1120779E+01  0.4570365E-02  0.1558276E+01  0.2292167E+06 -0.1137838E+01  0.2170969E+00 -0.1105876E+01
  0.8400000E+00  0.2602215E+07 -0.1082433E+01  0.1402843E-02 -0.6374663E+00  0.1510495E+05 -0.2199607E+01  0.1997521E-01 -0.5173933E+00  0.1129162E+07  0.2049771E+01  0.1534303E+01  0.2707184E+01  0.3534734E+06 -0.1082829E+01  0.6518557E-04 -0.1929567E+01  0.1410005E+03  0.1104769E+01  0.4091746E-02 -0.1960998E+01  0.2343567E+06 -0.1078278E+01  0.3781710E+00  0.1699918E+01
  0.8800000E+00  0.2695802E+07 -0.1018707E+01  0.1232318E-02 -0.2094032E+01  0.1571802E+05 -0.2175679E+01  0.4943799E-01 -0.2431560E+01  0.1060821E+07  0.2111100E+01  0.7419072E+01  0.1546623E+01  0.3578636E+06 -0.1019182E+01  0.9187008E-04  0.1487655E+01  0.1600500E+03  0.1098444E+01  0.2565519E-02  0.1299850E+01  0.2372546E+06 -0.1014090E+01  0.3686126E-01 -0.2927818E+01
  0.9200000E+00  0.2768602E+07 -0.9509094E+00  0.2886180E-02 -0.2137084E+01  0.1625579E+05 -0.2152018E+01  0.2380235E-01  0.2202374E+01  0.9682009E+06  0.2175397E+01  0.7520433E+01  0.1527896E+01  0.3583468E+06 -0.9515635E+00  0.4315837E-04  0.2356194E+01  0.1913771E+03  0.1107658E+01  0.4924696E-02 -0.1452783E+01  0.2375550E+06 -0.9458892E+00  0.2710714E+00 -0.3756771E+00
  0.9600000E+00  0.2816688E+07 -0.8799638E+00  0.1789892E-02  0.2060271E+01  0.1668872E+05 -0.2127376E+01  0.1181756E-01  0.2647914E+01  0.8530596E+06  0.2241735E+01  0.3326385E+01 -0.1453668E+01  0.3545560E+06 -0.8809473E+00  0.5554283E-04 -0.1849096E+01  0.2207452E+03  0.1155345E+01  0.1838304E-02  0.1980593E+01  0.2350217E+06 -0.8746538E+00  0.1774703E+00  0.1010042E+01
  0.1000000E+01  0.2835937E+07 -0.8072091E+00  0.4626609E-02  0.1428410E+01  0.1703569E+05 -0.2104166E+01  0.6974835E-01 -0.2531351E+01  0.7196052E+06  0.2308117E+01  0.3393071E+01 -0.9396749E+00  0.3463510E+06 -0.8086286E+00  0.1003490E-03 -0.1723446E+01  0.2538046E+03  0.1190867E+01  0.1560747E-02  0.1359020E+01  0.2295459E+06 -0.8016720E+00  0.6374157E-01 -0.2915978E+01
  0.1040000E+01  0.2826655E+07 -0.7337391E+00  0.1611387E-02  0.3566358E+00  0.1728914E+05 -0.2080678E+01  0.6174868E-01 -0.1313696E+01  0.5676073E+06  0.2371075E+01  0.3729744E+01 -0.2342093E+01  0.3339643E+06 -0.7355501E+00  0.9187008E-04  0.1653938E+01  0.3034464E+03  0.1179236E+01  0.1942247E-02  0.7965088E+00  0.2212830E+06 -0.7278702E+00  0.1781858E+00  0.2352773E+01
  0.1080000E+01  0.2788180E+07 -0.6608282E+00  0.1986834E-02  0.1369247E+01  0.1740704E+05 -0.2053091E+01  0.1054143E+00 -0.2504330E+01  0.4029775E+06  0.2421908E+01  0.3212110E+01  0.1466187E+01  0.3178096E+06 -0.6630108E+00  0.1525879E-04 -0.1570796E+01  0.3307621E+03  0.1160664E+01  0.1640320E-02  0.9272952E+00  0.2105212E+06 -0.6545178E+00  0.2239066E+00 -0.1407194E+01
  0.1120000E+01  0.2723330E+07 -0.5897247E+00  0.1759007E-02 -0.1489780E+01  0.1742275E+05 -0.2027148E+01  0.4909423E-01 -0.3566244E+00  0.2294211E+06  0.2434025E+01  0.3381613E+01 -0.1663036E+01  0.2984435E+06 -0.5925700E+00  0.7514082E-04  0.1152572E+01  0.3766703E+03  0.1185351E+01  0.2687164E-02  0.1915444E+01  0.1976260E+06 -0.5832114E+00  0.2219596E+00  0.3096411E+01
  0.1160000E+01  0.2636316E+07 -0.5216598E+00  0.1988183E-02 -0.2722004E+01  0.1729989E+05 -0.2001479E+01  0.4326611E-01 -0.1814064E+01  0.5938450E+05  0.2097849E+01  0.7457760E+01  0.5563005E+00  0.2767136E+06 -0.5256214E+00  0.1232566E-03 -0.1190290E+01  0.4099092E+03  0.1249316E+01  0.1471766E-02 -0.1784967E+01  0.1831763E+06 -0.5153568E+00  0.1537929E+00  0.4250797E+00
  0.1200000E+01  0.2530896E+07 -0.4581039E+00  0.2627471E-02 -0.2462696E+01  0.1704592E+05 -0.1974967E+01  0.3594327E-01 -0.1338624E+01  0.1228093E+06 -0.1994743E+00  0.3528841E+01 -0.2014680E+00  0.2535455E+06 -0.4635438E+00  0.9218632E-04 -0.1144169E+01  0.4497249E+03  0.1299878E+01  0.3269531E-02 -0.5148047E+00  0.1677627E+06 -0.4523227E+00  0.1726231E+00 -0.2996405E+01
  0.1240000E+01  0.2413478E+07 -0.3994742E+00  0.3871798E-02  0.1095363E+01  0.1667765E+05 -0.1944700E+01  0.2717313E-01  0.9318437E+00  0.2842704E+06 -0.2832473E+00  0.9096879E+00 -0.2377148E+01  0.2298102E+06 -0.4064116E+00  0.1261160E-03 -0.1510264E+01  0.5158220E+03  0.1305642E+01  0.4106204E-02  0.6635690E+00  0.1519582E+06 -0.3941658E+00  0.3025160E-01  0.3117631E+01
  0.1280000E+01  0.2287646E+07 -0.3461626E+00  0.1381050E-02  0.2715093E+01  0.1622027E+05 -0.1919790E+01  0.2225082E-01  0.6656817E-01  0.4360681E+06 -0.2643041E+00  0.2303837E+01  0.4225399E-03  0.2062439E+06 -0.3545322E+00  0.8217109E-04  0.1951303E+01  0.5557552E+03  0.1270046E+01  0.9922925E-03  0.1501543E+01  0.1362743E+06 -0.3410980E+00  0.1104387E+00  0.2833540E+01
  0.1320000E+01  0.2158020E+07 -0.2981539E+00  0.2814891E-02 -0.2390263E+01  0.1565605E+05 -0.1899400E+01  0.3811625E-01 -0.2344323E+01  0.5764631E+06 -0.2301424E+00  0.2954173E+01 -0.2971875E+01  0.1833950E+06 -0.3084533E+00  0.7864200E-04  0.2896614E+01  0.5975594E+03  0.1285704E+01  0.3639649E-02 -0.1455249E+01  0.1210754E+06 -0.2937418E+00  0.1314529E+00 -0.7908667E+00
  0.1360000E+01  0.2028291E+07 -0.2555277E+00  0.1592517E-02  0.4347456E+00  0.1493749E+05 -0.1871787E+01  0.2600102E-01 -0.8767273E+00  0.7021566E+06 -0.1953976E+00  0.5437357E+01 -0.7367178E-01  0.1617424E+06 -0.2689072E+00  0.4464989E-04  0.1919567E+01  0.6084620E+03  0.1351988E+01  0.1349918E-02 -0.1443287E+01  0.1066939E+06 -0.2528833E+00  0.3335093E-01 -0.1192626E+01
  0.1400000E+01  0.1901517E+07 -0.2185457E+00  0.1459268E-02 -0.4106206E+00  0.1412140E+05 -0.1848961E+01  0.2153985E-01 -0.5800391E+00  0.8114392E+06 -0.1645729E+00  0.1731072E+01 -0.3018274E+01  0.1416582E+06 -0.2360815E+00  0.3643984E-04 -0.2393215E+01  0.6231623E+03  0.1422717E+01  0.7977558E-03  0.2998850E+01  0.9335438E+05 -0.2187192E+00  0.7755048E-01  0.3976706E+00
  0.1440000E+01  0.1779868E+07 -0.1865313E+00  0.1546978E-02 -0.4134378E+00  0.1324745E+05 -0.1825800E+01  0.1721872E-01 -0.5926571E+00  0.9061741E+06 -0.1374307E+00  0.4400924E+01  0.1557032E+00  0.1232517E+06 -0.2088598E+00  0.4593504E-04 -0.8441540E+00  0.6565414E+03  0.1460601E+01  0.1433858E-02  0.1251464E+01  0.8112444E+05 -0.1901367E+00  0.2872900E-01  0.2067377E+01
  0.1480000E+01  0.1664268E+07 -0.1589963E+00  0.8584845E-03  0.5901749E+00  0.1234652E+05 -0.1795600E+01  0.4463876E-02  0.1701921E+01  0.9873708E+06 -0.1127269E+00  0.1258515E+01  0.1684323E+00  0.1065598E+06 -0.1862328E+00  0.6558201E-04 -0.2428235E+01  0.7295952E+03  0.1434549E+01  0.1636428E-02 -0.2385186E+01  0.7001834E+05 -0.1660078E+00  0.1419514E-01  0.2457125E+01
  0.1520000E+01  0.1554326E+07 -0.1360897E+00  0.2109273E-02  0.9385638E+00  0.1142020E+05 -0.1780192E+01  0.1349935E-01  0.1332883E+01  0.1054473E+07 -0.9049343E-01  0.4570956E+01  0.1314340E+00  0.9158989E+05 -0.1686703E+00  0.1116247E-04 -0.1919567E+01  0.7433144E+03  0.1386801E+01  0.1219457E-02 -0.1882376E+01  0.6006965E+05 -0.1466705E+00  0.5978263E-02 -0.2192696E+01
  0.1560000E+01  0.1451043E+07 -0.1174200E+00  0.1013428E-02  0.2708024E+00  0.1045999E+05 -0.1761467E+01  0.1320130E-01  0.1982705E+01  0.1109799E+07 -0.7166231E-01  0.1621369E+01  0.2529507E+00  0.7831230E+05 -0.1573376E+00  0.1526624E-04  0.2245537E+01  0.7429513E+03  0.1418764E+01  0.6231286E-02  0.1478224E+01  0.5125624E+05 -0.1335460E+00  0.1074865E-01 -0.1896840E+01
  0.1600000E+01  0.1354976E+07 -0.1026534E+00  0.9977855E-03  0.1714369E+01  0.9473597E+04 -0.1743628E+01  0.2669707E-02 -0.1001916E+01  0.1153381E+07 -0.5704713E-01  0.2691489E+01 -0.6559884E-01  0.6669310E+05 -0.1525715E+00  0.1526624E-04  0.2245537E+01  0.6793550E+03  0.1484704E+01  0.3193258E-03  0.2642544E+01  0.4357550E+05 -0.1269044E+00  0.3929893E-01 -0.1959701E-01
  0.1640000E+01  0.1265930E+07 -0.9180786E-01  0.1247958E-02 -0.1002522E+01  0.8511900E+04 -0.1756965E+01  0.2332414E-01  0.1594514E+01  0.1185821E+07 -0.4703696E-01  0.8101308E+00 -0.1152792E+00  0.5661241E+05 -0.1541466E+00  0.3057712E-04 -0.6241881E-01  0.6375753E+03  0.1546205E+01  0.7163526E-03  0.1490834E+01  0.3690716E+05 -0.1268007E+00  0.1145257E+00 -0.3062761E+01
  0.1680000E+01  0.1184086E+07 -0.8461493E-01  0.2939706E-02  0.9281127E+00  0.7649502E+04 -0.1749630E+01  0.1169852E-01 -0.1713123E+01  0.1209328E+07 -0.4084812E-01  0.1062898E+01  0.2791679E+00  0.4787930E+05 -0.1614062E+00  0.6397442E-05 -0.1107149E+01  0.6491773E+03  0.1568914E+01  0.1084729E-02  0.1352795E+01  0.3113062E+05 -0.1325592E+00  0.1554702E-01 -0.3038695E+01
  0.1720000E+01  0.1108918E+07 -0.8129784E-01  0.7096702E-03  0.1546630E+01  0.6868838E+04 -0.1759442E+01  0.7299246E-02  0.1044617E+01  0.1224899E+07 -0.3772229E-01  0.5188912E+00 -0.2990343E+01  0.4032068E+05 -0.1744092E+00  0.3438521E-05 -0.5880026E+00  0.7168876E+03  0.1522451E+01  0.1534361E-02 -0.1771026E+01  0.2611483E+05 -0.1442604E+00  0.2381191E-01 -0.3088942E+01
  0.1760000E+01  0.1039602E+07 -0.8223910E-01  0.1604103E-02  0.1628523E+01  0.6177224E+04 -0.1739877E+01  0.3384360E-02  0.1496618E+01  0.1232958E+07 -0.3788884E-01  0.5714993E+00 -0.2743265E+01  0.3388038E+05 -0.1937112E+00  0.1453376E-04 -0.2286540E+01  0.7320792E+03  0.1438795E+01  0.2459877E-02 -0.1326852E+01  0.2184846E+05 -0.1620836E+00  0.2074388E-01  0.1053251E+00
  0.1800000E+01  0.9766441E+06 -0.8723619E-01  0.2025590E-02  0.2465954E+01  0.5486283E+04 -0.1791225E+01  0.3362472E-02  0.8420343E+00  0.1237048E+07 -0.4154082E-01  0.8864923E+00 -0.7678723E+00  0.2843785E+05 -0.2218107E+00  0.1160195E-04 -0.1405648E+01  0.7150402E+03  0.1432549E+01  0.1934355E-02 -0.1008709E+01  0.1824709E+05 -0.1890447E+00  0.2439099E-01 -0.4147903E+00
  0.1840000E+01  0.9202134E+06 -0.9577924E-01  0.7659334E-03 -0.1559161E+01  0.4828836E+04 -0.1791259E+01  0.2833004E-02 -0.4220097E+00  0.1238469E+07 -0.4908623E-01  0.3034019E+01  0.3015491E+01  0.2392109E+05 -0.2587699E+00  0.1075794E-04  0.1347320E+01  0.5885137E+03  0.1447783E+01  0.8752118E-03  0.1215788E+01  0.1529342E+05 -0.2242814E+00  0.3940914E-02  0.2990015E+00
  0.1880000E+01  0.8705485E+06 -0.1071947E+00  0.4293510E-03  0.2824282E+01  0.4250510E+04 -0.1811522E+01  0.3864327E-02  0.5053787E+00  0.1239219E+07 -0.6033221E-01  0.8645630E+00  0.1976808E+00  0.2018999E+05 -0.3039941E+00  0.7864200E-05  0.1325818E+01  0.4725361E+03  0.1476190E+01  0.7218050E-03  0.2200953E+01  0.1285824E+05 -0.2686066E+00  0.4398457E-02 -0.7100922E-02
  0.1920000E+01  0.8277584E+06 -0.1210101E+00  0.2185421E-02  0.1699043E+01  0.3759203E+04 -0.1888011E+01  0.8545129E-02  0.2054809E+01  0.1240950E+07 -0.7430250E-01  0.8404103E+00  0.2123544E+00  0.1713283E+05 -0.3557414E+00  0.1066240E-05 -0.2034444E+01  0.4236144E+03  0.1514034E+01  0.1050463E-02  0.1370641E+01  0.1086599E+05 -0.3207016E+00  0.1301540E-01  0.2565113E+01
  0.1960000E+01  0.7921618E+06 -0.1360088E+00  0.4221345E-03  0.2298417E+01  0.3367998E+04 -0.1910374E+01  0.4461747E-02 -0.2185197E+01  0.1246408E+07 -0.8964976E-01  0.1244858E+01  0.2461907E+01  0.1458956E+05 -0.4147291E+00  0.8120244E-05  0.1629552E+01  0.4849059E+03  0.1539984E+01  0.6590968E-03  0.1552709E+01  0.9206095E+04 -0.3821642E+00  0.1299799E-01  0.1680043E+01
  0.2000000E+01  0.7632020E+06 -0.1497547E+00  0.1712103E-02 -0.7135391E+00  0.3043592E+04 -0.1909784E+01  0.7781656E-02  0.1033248E+01  0.1254921E+07 -0.1038215E+00  0.4486323E+00  0.5188689E+00  0.1249440E+05 -0.4742853E+00  0.1431306E-04 -0.1537475E+01  0.5609984E+03  0.1482955E+01  0.1807014E-02  0.1147106E+01  0.7840596E+04 -0.4451972E+00  0.5621158E-02 -0.2435651E+01
  0.2040000E+01  0.7396324E+06 -0.1601297E+00  0.2535658E-02 -0.6304976E+00  0.2771270E+04 -0.1879725E+01  0.1556290E-01  0.1834031E+01  0.1266831E+07 -0.1141443E+00  0.1107250E+01  0.3092187E+01  0.1075194E+05 -0.5373217E+00  0.4768372E-05 -0.2214298E+01  0.6061465E+03  0.1424349E+01  0.2145614E-02  0.1693222E+01  0.6704190E+04 -0.5135087E+00  0.4993998E-02  0.2426706E+01
  0.2080000E+01  0.7195074E+06 -0.1650280E+00  0.2737876E-02  0.1451432E+01  0.2483019E+04 -0.1914108E+01  0.3310729E-02  0.2697793E+01  0.1280414E+07 -0.1188141E+00  0.1284277E+01  0.2773482E+01  0.9311076E+04 -0.6004351E+00  0.1722564E-04  0.1487655E+01  0.5927776E+03  0.1412574E+01  0.4432816E-02  0.1482258E+01  0.5770236E+04 -0.5825036E+00  0.3683148E-02 -0.3027611E+01
  0.2120000E+01  0.7004668E+06 -0.1637278E+00  0.1681003E-02  0.4905027E+00  0.2151501E+04 -0.1960040E+01  0.7774835E-02  0.1464000E+01  0.1292193E+07 -0.1169965E+00  0.2859099E+01 -0.3009223E+01  0.8134667E+04 -0.6669012E+00  0.6713928E-05  0.1677532E+01  0.4333277E+03  0.1351412E+01  0.2562493E-03  0.1649031E+01  0.5024324E+04 -0.6502575E+00  0.1191081E-02 -0.1110220E+00
  0.2160000E+01  0.6808826E+06 -0.1560071E+00  0.1833375E-02 -0.2193565E+01  0.1887729E+04 -0.2098978E+01  0.1077637E-02 -0.1865652E+01  0.1299254E+07 -0.1090154E+00  0.1740009E+01 -0.5858628E+00  0.7131568E+04 -0.7305372E+00  0.4792154E-05 -0.1471128E+01  0.2886614E+03  0.1083617E+01  0.1107373E-02 -0.1460013E+01  0.4392032E+04 -0.7160636E+00  0.9840981E-03  0.1392265E+01
  0.2200000E+01  0.6587988E+06 -0.1447425E+00  0.3062234E-02  0.2303752E+01  0.1659582E+04 -0.2038575E+01  0.7967235E-02 -0.1571230E+01  0.1297701E+07 -0.9718599E-01  0.1458897E+01 -0.2751527E+01  0.6343316E+04 -0.8001229E+00  0.1168251E-04  0.1570796E+01  0.1901211E+03  0.7491627E+00  0.9692148E-03 -0.9514047E+00  0.3906434E+04 -0.7883831E+00  0.2555242E-02 -0.2707513E+01
  0.2240000E+01  0.6352590E+06 -0.1308607E+00  0.1623930E-02  0.3324770E+00  0.1511825E+04 -0.2203539E+01  0.4903602E-02  0.1522034E+01  0.1288909E+07 -0.8302286E-01  0.1535931E+01  0.1892564E+00  0.5697628E+04 -0.8662727E+00  0.3672343E-05  0.1800028E+01  0.1809673E+03  0.1630174E+01  0.8027079E-03 -0.1584162E+01  0.3518795E+04 -0.8587474E+00  0.7646658E-02  0.1943929E+01
  0.2280000E+01  0.6099454E+06 -0.1170851E+00  0.1298450E-02 -0.1929210E+01  0.1374209E+04 -0.2120087E+01  0.7126455E-02 -0.2502697E+01  0.1272540E+07 -0.6879522E-01  0.1309696E+01  0.5627689E+00  0.5182928E+04 -0.9326267E+00  0.4054868E-05  0.1600200E+01  0.2852678E+03  0.1634573E+01  0.6500802E-03 -0.1580699E+01  0.3219221E+04 -0.9337525E+00  0.1971604E-02 -0.1077860E+01
  0.2320000E+01  0.5831748E+06 -0.1041543E+00  0.4056120E-02  0.2862092E+01  0.1309607E+04 -0.2234008E+01  0.1063531E-01 -0.2630095E+01  0.1248950E+07 -0.5486730E-01  0.1475197E+01  0.1568117E+00  0.4769458E+04 -0.1001820E+01  0.1011524E-05  0.7853982E+00  0.3790099E+03  0.1598320E+01  0.4388698E-03 -0.1821408E+01  0.2985104E+04 -0.1011605E+01  0.2550975E-02  0.2501561E+01
  0.2360000E+01  0.5564208E+06 -0.9246342E-01  0.2585395E-02  0.3110104E+00  0.1220737E+04 -0.2146435E+01  0.3373790E-02  0.1956050E+01  0.1220980E+07 -0.4223853E-01  0.3550587E+00 -0.1517324E+01  0.4433128E+04 -0.1066550E+01  0.1815742E-05 -0.1975688E+01  0.4581989E+03  0.1643788E+01  0.8886084E-04  0.2958799E+01  0.2799907E+04 -0.1085553E+01  0.8821377E-03 -0.5367510E-01
  0.2400000E+01  0.5296059E+06 -0.8340609E-01  0.5566935E-03  0.1213223E+01  0.1129673E+04 -0.2254774E+01  0.3165756E-02 -0.2099898E+01  0.1188886E+07 -0.3206931E-01  0.6740072E+00 -0.6213986E+00  0.4146521E+04 -0.1124819E+01  0.7251218E-06  0.2976444E+01  0.4419236E+03  0.1615618E+01  0.1014333E-03 -0.8540117E+00  0.2638247E+04 -0.1150931E+01  0.2425632E-02  0.2907089E+01
  0.2440000E+01  0.5031052E+06 -0.7704412E-01  0.1442820E-02  0.5436403E+00  0.9739164E+03 -0.2290293E+01  0.5074931E-02 -0.2831872E+01  0.1154558E+07 -0.2369189E-01  0.4080440E+00  0.3064975E+01  0.3927523E+04 -0.1184365E+01  0.2622774E-05  0.1582160E+01  0.2706758E+03  0.1462532E+01  0.4283054E-03  0.2175628E+01  0.2501474E+04 -0.1208053E+01  0.7461362E-03  0.1442921E+00
  0.2480000E+01  0.4776428E+06 -0.7304143E-01  0.1087430E-02  0.1870357E+00  0.9874638E+03 -0.2679049E+01  0.8716467E-03 -0.3765953E+00  0.1117891E+07 -0.1796736E-01  0.2503112E+00  0.1325896E+01  0.3734094E+04 -0.1225409E+01  0.2761342E-05 -0.2379091E+01  0.1320296E+03  0.7767605E+00  0.1902810E-03  0.2992563E+01  0.2377849E+04 -0.1244705E+01  0.1769005E-02 -0.1942890E+01
  0.2520000E+01  0.4528167E+06 -0.7169864E-01  0.9164267E-03 -0.2803710E+01  0.8679208E+03 -0.2646255E+01  0.1979707E-02 -0.2682240E+01  0.1080342E+07 -0.1515216E-01  0.1660137E+01 -0.1714311E+00  0.3544169E+04 -0.1258157E+01  0.3257191E-05  0.3068330E+01  0.1501595E+03 -0.3275853E+00  0.1234172E-03 -0.5895434E-01  0.2257690E+04 -0.1272834E+01  0.3872571E-02  0.1561247E+01
  0.2560000E+01  0.4296268E+06 -0.7306731E-01  0.9285784E-03  0.2614121E-01  0.8704257E+03 -0.2776809E+01  0.4692447E-02  0.8986046E+00  0.1043038E+07 -0.1543065E-01  0.7607761E+00 -0.3138156E+01  0.3369080E+04 -0.1279443E+01  0.1119870E-05  0.2701750E+01  0.1950859E+03 -0.6748073E+00  0.4960549E-03 -0.2808139E+01  0.2148578E+04 -0.1289121E+01  0.1433801E-02 -0.9585660E+00
  0.2600000E+01  0.4081773E+06 -0.7720436E-01  0.6116206E-03 -0.1542652E+01  0.8014290E+03 -0.2701339E+01  0.1422049E-02  0.5123096E+00  0.1007677E+07 -0.1823922E-01  0.4081606E+00 -0.2884119E+01  0.3226779E+04 -0.1298641E+01  0.2874804E-05 -0.3381425E+00  0.1292848E+03 -0.6262432E+00  0.6638031E-04 -0.1727678E+01  0.2067577E+04 -0.1304918E+01  0.5373891E-02  0.1627897E+01
  0.2640000E+01  0.3886571E+06 -0.8347477E-01  0.1922544E-02  0.2191351E+00  0.6998143E+03 -0.2289822E+01  0.7033797E-03  0.1070949E+01  0.9744876E+06 -0.2358286E-01  0.2823262E+00 -0.2291617E+01  0.3095229E+04 -0.1310900E+01  0.1668997E-05  0.1579725E+01  0.5684605E+02  0.1170322E+01  0.2801337E-04  0.1217753E+01  0.1998372E+04 -0.1315469E+01  0.3920670E-02  0.1546178E+01
  0.2680000E+01  0.3707304E+06 -0.9110759E-01  0.5479283E-03 -0.2741145E+01  0.7860164E+03 -0.2614898E+01  0.5926448E-02  0.1170191E+01  0.9438041E+06 -0.3013972E-01  0.3434736E+00 -0.2777961E+01  0.2964569E+04 -0.1325304E+01  0.1678482E-05  0.1464061E+01  0.1866424E+03  0.1865053E+01  0.3961374E-03 -0.1103650E+01  0.1929559E+04 -0.1329065E+01  0.1216451E-02 -0.1354700E+01
  0.2720000E+01  0.3550089E+06 -0.9795713E-01  0.1095048E-02  0.1474398E+01  0.7409141E+03 -0.2102380E+01  0.4117253E-02 -0.1264211E+01  0.9163154E+06 -0.3703374E-01  0.2626951E+00  0.2870154E+01  0.2831867E+04 -0.1331394E+01  0.1192093E-05  0.1570796E+01  0.2921251E+03  0.1937086E+01  0.4090236E-03  0.4094650E+00  0.1860100E+04 -0.1336112E+01  0.2860591E-03  0.2341829E+01
  0.2760000E+01  0.3408312E+06 -0.1032630E+00  0.1552954E-02  0.2299609E+01  0.7783912E+03 -0.2593081E+01  0.1962771E-02  0.2437495E+01  0.8914816E+06 -0.4204898E-01  0.6555238E+00  0.7136243E+00  0.2718412E+04 -0.1338961E+01  0.4805480E-06  0.1695151E+01  0.3192278E+03  0.1926726E+01  0.4487107E-03 -0.2159462E+01  0.1799566E+04 -0.1346126E+01  0.1287967E-02 -0.1195938E+01
  0.2800000E+01  0.3275206E+06 -0.1063877E+00  0.1941659E-02 -0.2451969E+01  0.7707839E+03 -0.2717282E+01  0.5279970E-02  0.2213819E+01  0.8682538E+06 -0.4423979E-01  0.9857457E+00 -0.2844032E+01  0.2618731E+04 -0.1352653E+01  0.1870675E-05 -0.3923402E+00  0.2052923E+03  0.1812279E+01  0.3042044E-03 -0.2826224E+01  0.1734889E+04 -0.1360870E+01  0.1466810E-02  0.3164418E+00
  0.2840000E+01  0.3146808E+06 -0.1057520E+00  0.1898843E-02 -0.3024588E+01  0.7540187E+03 -0.2799077E+01  0.8559995E-02  0.1212344E+01  0.8445031E+06 -0.4307332E-01  0.6666871E+00 -0.6120458E+00  0.2497455E+04 -0.1358647E+01  0.4221844E-05  0.2278571E+00  0.7024694E+02  0.1009382E+01  0.2682527E-03 -0.3355787E-01  0.1644795E+04 -0.1365499E+01  0.3413002E-02  0.1800090E+01
  0.2880000E+01  0.3020286E+06 -0.1020744E+00  0.1663629E-02 -0.3022902E+01  0.8476708E+03 -0.3038097E+01  0.6913379E-03 -0.1158761E+01  0.8194486E+06 -0.3909000E-01  0.2868077E+00 -0.9845435E+00  0.2381641E+04 -0.1354995E+01  0.3734220E-05  0.1441544E+00  0.1339579E+03 -0.5331867E+00  0.3949390E-03  0.1841056E+00  0.1560383E+04 -0.1360061E+01  0.3752998E-02 -0.1805471E+01
  0.2920000E+01  0.2883684E+06 -0.9763855E-01  0.4448994E-03 -0.1452265E+01  0.6843109E+03 -0.2684643E+01  0.3111252E-02  0.3794356E+00  0.7922352E+06 -0.3300912E-01  0.7079184E+00  0.2347446E-01  0.2277584E+04 -0.1362455E+01  0.2514723E-05  0.2119346E+01  0.2487790E+03 -0.7844784E+00  0.7728751E-03 -0.7810628E+00  0.1485303E+04 -0.1365316E+01  0.1921825E-02 -0.1772840E+01
  0.2960000E+01  0.2748855E+06 -0.9127897E-01  0.4546534E-03  0.3278236E+00  0.6357698E+03 -0.2311691E+01  0.6501602E-03  0.1602201E+01  0.7629797E+06 -0.2660524E-01  0.3004670E+00 -0.2440020E+01  0.2151383E+04 -0.1354456E+01  0.2394640E-06  0.1664273E+01  0.3063510E+03 -0.8644524E+00  0.7528198E-03 -0.2414957E+01  0.1397508E+04 -0.1354568E+01  0.4984803E-03 -0.1063285E+01
  0.3000000E+01  0.2611827E+06 -0.8555821E-01  0.9819544E-03  0.5274274E+00  0.6539937E+03 -0.2216372E+01  0.3431175E-02  0.3103489E+00  0.7324891E+06 -0.1982030E-01  0.6425653E+00  0.2625077E+01  0.2039596E+04 -0.1351795E+01  0.1799419E-05  0.1682825E+01  0.2390445E+03 -0.8721250E+00  0.2117531E-03  0.7358175E+00  0.1324597E+04 -0.1349522E+01  0.4168516E-03 -0.1309934E+01
  0.3040000E+01  0.2474677E+06 -0.8082780E-01  0.3487979E-03  0.2824864E+00  0.6734233E+03 -0.2192631E+01  0.2291037E-02  0.1197068E+01  0.7006805E+06 -0.1396131E-01  0.1345686E+00  0.2681009E+01  0.1936061E+04 -0.1346071E+01  0.9974877E-06 -0.2900237E+01  0.8155183E+02 -0.6998569E+00  0.5507664E-03 -0.1750819E+01  0.1261199E+04 -0.1341985E+01  0.1730762E-02 -0.1467972E+01
  0.3080000E+01  0.2336337E+06 -0.7768975E-01  0.1134656E-02 -0.3097034E+01  0.7180024E+03 -0.2078456E+01  0.3360626E-02  0.2118143E+01  0.6678561E+06 -0.9721815E-02  0.7610947E+00 -0.3094822E+01  0.1831569E+04 -0.1345029E+01  0.1091832E-04 -0.1457276E+01  0.8503134E+02  0.1879092E+01  0.8739311E-04 -0.1553745E+01  0.1198570E+04 -0.1339494E+01  0.4445753E-03 -0.8187474E-01
  0.3120000E+01  0.2202090E+06 -0.7667974E-01  0.2615788E-03 -0.8127046E+00  0.7343912E+03 -0.2100126E+01  0.4717103E-02 -0.2718513E+01  0.6348736E+06 -0.7486772E-02  0.7292953E+00 -0.2968381E+01  0.1739681E+04 -0.1341335E+01  0.3950129E-05  0.1480136E+01  0.2321675E+03  0.2033136E+01  0.4721729E-03  0.1440405E+01  0.1147095E+04 -0.1335554E+01  0.1056509E-02 -0.2849978E+01