VARIABLES="w (rad/s)"
"abs(F   1   1)" "angle(F   1   1)"
"abs(F   1   2)" "angle(F   1   2)"
"abs(F   1   3)" "angle(F   1   3)"
"abs(F   1   4)" "angle(F   1   4)"
"abs(F   1   5)" "angle(F   1   5)"
"abs(F   1   6)" "angle(F   1   6)"
"abs(F   2   1)" "angle(F   2   1)"
"abs(F   2   2)" "angle(F   2   2)"
"abs(F   2   3)" "angle(F   2   3)"
"abs(F   2   4)" "angle(F   2   4)"
"abs(F   2   5)" "angle(F   2   5)"
"abs(F   2   6)" "angle(F   2   6)"
Zone t="Diffraction force - beta =   0.000 deg",I=   500,F=POINT
  0.4000000E-01  0.1163936E+06 -0.1570165E+01  0.7046603E-01 -0.3141043E+01  0.3174553E+06 -0.1224292E-03  0.5184110E-01  0.8316286E-02  0.9279232E+05  0.1571374E+01  0.1105047E-01  0.1127335E+01  0.1917846E+05 -0.1570165E+01  0.5509867E-03 -0.2163562E-02  0.5445810E+01  0.3129422E+01  0.1700593E-01 -0.9813809E-04  0.1285236E+05 -0.1570164E+01  0.5080028E-01 -0.2704290E-01
  0.8000000E-01  0.2349576E+06 -0.1568259E+01  0.1320077E-01 -0.7555820E-02  0.3163995E+06 -0.4881601E-03  0.4071939E+00  0.3140558E+01  0.1830446E+06  0.1573333E+01  0.6211137E+00 -0.1102430E+01  0.3849007E+05 -0.1568275E+01  0.6123068E-04  0.3118228E+01  0.2172582E+02  0.3136917E+01  0.1425484E+00  0.3779953E-03  0.2580219E+05 -0.1568275E+01  0.1968100E-01 -0.2378607E+01
  0.1200000E+00  0.3551203E+06 -0.1565096E+01  0.3242010E-01  0.3136388E+01  0.3146706E+06 -0.1103327E-02  0.4516738E-01  0.3113934E+01  0.2741676E+06  0.1576520E+01  0.2320166E+00  0.1314101E+01  0.5799655E+05 -0.1565086E+01  0.4270916E-02 -0.1563066E-02  0.4863136E+02  0.3136353E+01  0.1178542E-02 -0.2203639E+00  0.3888278E+05 -0.1565091E+01  0.4683734E-01 -0.2512552E+01
  0.1600000E+00  0.4771039E+06 -0.1560509E+01  0.3038435E-03  0.2214726E+01  0.3123337E+06 -0.1960908E-02  0.2641191E+00  0.3113682E+01  0.3653229E+06  0.1581070E+01  0.2146253E+00 -0.1389887E+01  0.7768170E+05 -0.1560519E+01  0.2331972E-02  0.3141183E+01  0.8591852E+02  0.3137369E+01  0.3186641E-01 -0.3112440E-02  0.5208145E+05 -0.1560519E+01  0.7102200E-01 -0.1761402E+01
  0.2000000E+00  0.6009489E+06 -0.1554511E+01  0.7969584E-01  0.1944041E-02  0.3093887E+06 -0.3067489E-02  0.1170000E+00  0.3795640E-01  0.4560011E+06  0.1587079E+01  0.1152870E+01 -0.1425894E+01  0.9751850E+05 -0.1554513E+01  0.3114650E-03 -0.3095648E+01  0.1338721E+03  0.3137170E+01  0.5275038E-01 -0.3133023E+01  0.6537995E+05 -0.1554516E+01  0.4544860E-01 -0.1549734E+01
  0.2400000E+00  0.7269444E+06 -0.1546971E+01  0.1269815E-01 -0.3112529E+01  0.3058587E+06 -0.4428612E-02  0.3271699E-01  0.1920548E+00  0.5462066E+06  0.1594630E+01  0.1456201E+00  0.2147706E+01  0.1175123E+06 -0.1546973E+01  0.2280259E-03  0.2928034E-01  0.1923487E+03  0.3136337E+01  0.1566850E+00 -0.3379574E-02  0.7878202E+05 -0.1546973E+01  0.1720643E-01  0.6984333E+00
  0.2800000E+00  0.8554526E+06 -0.1537772E+01  0.4339807E-01 -0.3114460E+01  0.3017669E+06 -0.6052454E-02  0.2375423E+00 -0.3102389E+01  0.6348588E+06  0.1603830E+01  0.7218266E+00 -0.1004059E+01  0.1376500E+06 -0.1537769E+01  0.1816044E-02 -0.3150835E-02  0.2602920E+03  0.3134447E+01  0.2100656E-01 -0.2515364E-01  0.9227910E+05 -0.1537770E+01  0.1555974E+00 -0.1450763E+01
  0.3200000E+00  0.9867117E+06 -0.1526772E+01  0.7328250E-01  0.1064556E-02  0.2971207E+06 -0.7937411E-02  0.2323225E+00  0.2541037E-01  0.7217624E+06  0.1614820E+01  0.1333633E+01  0.1529470E+01  0.1579159E+06 -0.1526768E+01  0.5097978E-04 -0.6893491E+00  0.3375084E+03  0.3133394E+01  0.6537853E-01 -0.3124842E+01  0.1058576E+06 -0.1526771E+01  0.1023801E+00  0.1684549E+01
  0.3600000E+00  0.1120812E+07 -0.1513808E+01  0.6299263E-01  0.4510840E-02  0.2919486E+06 -0.1009952E-01  0.3905296E+00  0.3094212E+01  0.8058342E+06  0.1627786E+01  0.2750714E+01 -0.1641990E+01  0.1782635E+06 -0.1513807E+01  0.3540320E-02 -0.3136744E+01  0.4241621E+03  0.3130923E+01  0.9074165E-01 -0.6305866E-03  0.1194890E+06 -0.1513807E+01  0.6528037E-01  0.2951402E+01
  0.3999999E+00  0.1257609E+07 -0.1498698E+01  0.1411608E-01 -0.3085492E+01  0.2862647E+06 -0.1254094E-01  0.3367700E-01 -0.2036966E+01  0.8871479E+06  0.1642902E+01  0.1228410E+01 -0.1712391E+01  0.1986347E+06 -0.1498697E+01  0.4909288E-02  0.1321001E-01  0.5186450E+03  0.3128435E+01  0.3632376E-01  0.3130775E+01  0.1331306E+06 -0.1498699E+01  0.1333259E+00  0.1395671E+01
  0.4400000E+00  0.1397259E+07 -0.1481228E+01  0.7537846E-01  0.2349927E-02  0.2800886E+06 -0.1527600E-01  0.5935776E-01 -0.1503462E+00  0.9642837E+06  0.1660374E+01  0.1211695E+00  0.3329632E+00  0.2189799E+06 -0.1481224E+01  0.2451007E-02  0.2101267E-01  0.6216484E+03  0.3126177E+01  0.1991604E-01 -0.3087553E+01  0.1467504E+06 -0.1481227E+01  0.6369226E-01  0.2035911E+01
  0.4800000E+00  0.1539688E+07 -0.1461150E+01  0.2596514E-01  0.1205748E+00  0.2734623E+06 -0.1831750E-01  0.1811979E+00 -0.8868875E-01  0.1036434E+07  0.1680453E+01  0.2014125E+01  0.1652598E+01  0.2391826E+06 -0.1461150E+01  0.4185057E-03  0.3018227E+01  0.7333687E+03  0.3122362E+01  0.6322847E-01  0.2044642E-01  0.1602728E+06 -0.1461155E+01  0.2157597E+00 -0.1764874E+01
  0.5200000E+00  0.1684493E+07 -0.1438218E+01  0.3342921E-01 -0.6897002E-02  0.2663557E+06 -0.2167828E-01  0.2305831E+00  0.1108140E+00  0.1102448E+07  0.1703397E+01  0.1948043E+01 -0.1209108E+01  0.2591221E+06 -0.1438219E+01  0.1796788E-02  0.3133101E+01  0.8496728E+03  0.3118861E+01  0.2120016E-01  0.3107420E+01  0.1736088E+06 -0.1438225E+01  0.3026593E+00  0.1504687E+01
  0.5600000E+00  0.1831158E+07 -0.1412136E+01  0.6858885E-01 -0.3140961E+01  0.2588474E+06 -0.2537108E-01  0.9342826E-01 -0.1996875E+01  0.1160394E+07  0.1729465E+01  0.3899225E+01  0.1685546E+01  0.2786622E+06 -0.1412128E+01  0.2914209E-02  0.3107553E+01  0.9731703E+03  0.3115837E+01  0.5475397E-01 -0.3105356E+01  0.1866709E+06 -0.1412137E+01  0.1538632E+00  0.6250381E+00
  0.6000000E+00  0.1979250E+07 -0.1382575E+01  0.9067384E-02 -0.2991938E+01  0.2509458E+06 -0.2941322E-01  0.9542939E-01 -0.3137154E+01  0.1208696E+07  0.1759005E+01  0.2416707E+01  0.1947953E+01  0.2975804E+06 -0.1382580E+01  0.3213584E-02  0.2018129E-01  0.1103694E+04  0.3111308E+01  0.6356004E-01 -0.3062656E+01  0.1993121E+06 -0.1382592E+01  0.2305843E+00  0.1818540E+01
  0.6400000E+00  0.2127071E+07 -0.1349273E+01  0.1350012E-01 -0.3122670E+01  0.2426635E+06 -0.3381829E-01  0.2917018E+00  0.2984058E+01  0.1246789E+07  0.1792327E+01  0.2555627E+01 -0.1654830E+01  0.3155933E+06 -0.1349298E+01  0.3728464E-03  0.3018507E+01  0.1239352E+04  0.3106627E+01  0.6733605E-01 -0.9177693E-02  0.2113370E+06 -0.1349314E+01  0.1660715E+00  0.1949390E+01
  0.6800000E+00  0.2273485E+07 -0.1311924E+01  0.1009542E-01 -0.7500413E-01  0.2340649E+06 -0.3861758E-01  0.1368317E+00 -0.1225716E+00  0.1271332E+07  0.1829671E+01  0.1719999E+01  0.1228637E+01  0.3324363E+06 -0.1311946E+01  0.3799033E-02 -0.2811915E-01  0.1373426E+04  0.3101535E+01  0.1185825E+00 -0.3120850E+01  0.2225658E+06 -0.1311967E+01  0.8454598E-01  0.2091084E+01
  0.7200000E+00  0.2416047E+07 -0.1270231E+01  0.2919749E-02  0.2797743E+01  0.2251508E+06 -0.4382499E-01  0.7558493E-01  0.2978128E+01  0.1280187E+07  0.1871251E+01  0.4143841E+01  0.8673779E+00  0.3477082E+06 -0.1270257E+01  0.7363947E-03  0.2072242E-01  0.1514387E+04  0.3097635E+01  0.4330983E-02 -0.1785596E+01  0.2327366E+06 -0.1270281E+01  0.4672697E+00 -0.1577462E+01
  0.7599999E+00  0.2553257E+07 -0.1223867E+01  0.2723231E-01  0.3073568E+01  0.2159851E+06 -0.4944622E-01  0.1211045E+00 -0.2905886E+01  0.1270676E+07  0.1917468E+01  0.3455883E+01 -0.1974571E+01  0.3609875E+06 -0.1223944E+01  0.2324150E-03 -0.2736701E+01  0.1659643E+04  0.3091811E+01  0.5243894E-02  0.3173797E+00  0.2415648E+06 -0.1223975E+01  0.1965493E+00 -0.1630435E+01
  0.8000000E+00  0.2678297E+07 -0.1173247E+01  0.2382354E-01  0.3106036E+01  0.2065408E+06 -0.5550699E-01  0.3676371E-01  0.8510370E+00  0.1241790E+07  0.1968034E+01  0.6351823E+01 -0.1146947E+01  0.3714748E+06 -0.1173401E+01  0.1045290E-02  0.3130644E+01  0.1803835E+04  0.3084961E+01  0.4708803E-01  0.3043909E+01  0.2485150E+06 -0.1173446E+01  0.2117874E+00 -0.1108050E+01
  0.8400000E+00  0.2790739E+07 -0.1117996E+01  0.9066658E-02 -0.3070132E+01  0.1969477E+06 -0.6206538E-01  0.1055689E+00 -0.3040519E+01  0.1190461E+07  0.2023212E+01  0.1768208E+01  0.2639474E+01  0.3789629E+06 -0.1118205E+01  0.1854948E-02 -0.3108682E+01  0.1941948E+04  0.3076682E+01  0.8721139E-02 -0.2686992E+01  0.2534390E+06 -0.1118264E+01  0.3778944E+00  0.1687644E+01
  0.8800000E+00  0.2884541E+07 -0.1058534E+01  0.3173419E-02 -0.2725931E+01  0.1871954E+06 -0.6912269E-01  0.4165158E-01 -0.2286706E+01  0.1114947E+07  0.2082228E+01  0.7057667E+01  0.1490066E+01  0.3827857E+06 -0.1058772E+01  0.1524448E-03  0.5532943E+00  0.2083126E+04  0.3073121E+01  0.9660006E-02  0.2587710E+00  0.2559043E+06 -0.1058839E+01  0.3630476E-01 -0.2959079E+01
  0.9200000E+00  0.2955596E+07 -0.9953763E+00  0.1233927E-01 -0.2077049E+00  0.1773315E+06 -0.7669137E-01  0.1029437E+00  0.1892996E+00  0.1014141E+07  0.2144428E+01  0.7461301E+01  0.1529488E+01  0.3824103E+06 -0.9957330E+00  0.2472162E-02  0.3127704E+01  0.2218526E+04  0.3064340E+01  0.7102743E-01 -0.6830176E-01  0.2555530E+06 -0.9958131E+00  0.2716362E+00 -0.3195068E+00
  0.9600000E+00  0.2999913E+07 -0.9294648E+00  0.2247135E-01  0.3086461E+01  0.1674288E+06 -0.8473339E-01  0.3454756E+00  0.1780802E-01  0.8900062E+06  0.2209202E+01  0.3124418E+01 -0.1488132E+01  0.3774830E+06 -0.9300842E+00  0.7033955E-04 -0.8621699E+00  0.2359019E+04  0.3055873E+01  0.2265210E-01  0.7368010E-01  0.2521589E+06 -0.9301903E+00  0.1850901E+00  0.9325449E+00
  0.1000000E+01  0.3013438E+07 -0.8621790E+00  0.4221765E-02  0.1497772E+01  0.1574893E+06 -0.9328065E-01  0.6569852E-01 -0.2478227E+01  0.7470304E+06  0.2275261E+01  0.3969755E+01 -0.1030812E+01  0.3678963E+06 -0.8631420E+00  0.2214920E-02 -0.3095075E+01  0.2492110E+04  0.3046870E+01  0.1114884E-01  0.1400160E+00  0.2456380E+06 -0.8632878E+00  0.5796346E-01 -0.3084478E+01
  0.1040000E+01  0.2996617E+07 -0.7946250E+00  0.4214169E-03  0.2219091E+01  0.1475894E+06 -0.1024221E+00  0.1498044E+00 -0.2730341E+01  0.5853120E+06  0.2340394E+01  0.4190058E+01 -0.2222963E+01  0.3539227E+06 -0.7958896E+00  0.2298124E-02  0.3103405E+01  0.2601704E+04  0.3033577E+01  0.7781288E-02  0.2970399E+01  0.2361758E+06 -0.7960791E+00  0.1684926E+00  0.2213913E+01
  0.1080000E+01  0.2949068E+07 -0.7281401E+00  0.3284674E-02  0.6892032E+00  0.1378584E+06 -0.1120992E+00  0.2934607E+00 -0.2928318E+01  0.4110628E+06  0.2399748E+01  0.3152854E+01  0.1479326E+01  0.3360335E+06 -0.7296624E+00  0.7630921E-03 -0.3121595E+01  0.2704803E+04  0.3029211E+01  0.1283723E-01  0.1068834E+00  0.2241037E+06 -0.7298732E+00  0.2147676E+00 -0.1405714E+01
  0.1120000E+01  0.2873968E+07 -0.6640020E+00  0.1652972E-02 -0.1889277E+01  0.1282426E+06 -0.1222593E+00  0.3874483E-01 -0.2681823E+01  0.2279792E+06  0.2441453E+01  0.2178854E+01 -0.1714341E+01  0.3148586E+06 -0.6660599E+00  0.1618888E-02  0.3099166E+01  0.2805240E+04  0.3016847E+01  0.5906781E-02  0.4444400E+00  0.2098424E+06 -0.6663152E+00  0.2353568E+00  0.3055339E+01
  0.1160000E+01  0.2775971E+07 -0.6034619E+00  0.1881795E-01 -0.4654452E-01  0.1188270E+06 -0.1326828E+00  0.8409682E-01 -0.2626130E+01  0.4476263E+05  0.2301362E+01  0.7596586E+01  0.5547872E+00  0.2913184E+06 -0.6065020E+00  0.3038654E-02 -0.3103922E+01  0.2913269E+04  0.3007697E+01  0.3149391E-01 -0.4654391E-01  0.1940267E+06 -0.6068339E+00  0.1503823E+00  0.4051087E+00
  0.1200000E+01  0.2659403E+07 -0.5480267E+00  0.2478193E-01 -0.3074643E+01  0.1096756E+06 -0.1433897E+00  0.1203866E+00 -0.2847535E+01  0.1342592E+06 -0.4588197E+00  0.3691446E+01 -0.8041763E-01  0.2664102E+06 -0.5523756E+00  0.7447946E-03 -0.1129197E+00  0.3003592E+04  0.2996819E+01  0.3600495E-02 -0.4827200E+00  0.1773009E+06 -0.5528181E+00  0.1765015E+00 -0.3015761E+01
  0.1240000E+01  0.2531022E+07 -0.4981231E+00  0.1012456E-01  0.2815113E+01  0.1008779E+06 -0.1545167E+00  0.7026577E-01  0.3094205E+00  0.3036420E+06 -0.4535536E+00  0.1250678E+01 -0.2047314E+01  0.2410411E+06 -0.5038152E+00  0.2545578E-03 -0.5172874E+00  0.3057329E+04  0.2978044E+01  0.1251388E-01  0.2031198E+00  0.1602649E+06 -0.5044068E+00  0.4357759E-01  0.3053195E+01
  0.1280000E+01  0.2394763E+07 -0.4542179E+00  0.4198645E-01  0.3127565E+01  0.9232596E+05 -0.1658534E+00  0.1359538E+00  0.1390446E-01  0.4606925E+06 -0.4185574E+00  0.2395684E+01 -0.1932497E+00  0.2159799E+06 -0.4611667E+00  0.1969285E-03  0.3769093E+00  0.3073998E+04  0.2968046E+01  0.1179790E-01  0.8339635E-01  0.1434532E+06 -0.4618552E+00  0.1108770E+00  0.2856191E+01
  0.1320000E+01  0.2255472E+07 -0.4163296E+00  0.4105844E-02 -0.4786272E+00  0.8408262E+05 -0.1771609E+00  0.3223978E-01 -0.9918718E+00  0.6049526E+06 -0.3823764E+00  0.2846629E+01 -0.3116394E+01  0.1918042E+06 -0.4250194E+00  0.9004706E-03  0.3120410E+01  0.3099369E+04  0.2955502E+01  0.3703378E-02 -0.1734273E+01  0.1272536E+06 -0.4258298E+00  0.1318053E+00 -0.7552204E+00
  0.1360000E+01  0.2117048E+07 -0.3845499E+00  0.2363762E-01  0.2217183E-01  0.7637005E+05 -0.1879041E+00  0.5396919E-01 -0.3723944E+00  0.7336185E+06 -0.3513733E+00  0.5424072E+01 -0.7273976E-02  0.1690152E+06 -0.3960864E+00  0.6114265E-03  0.3082287E+01  0.3139964E+04  0.2951286E+01  0.6466164E-02 -0.2037590E+00  0.1120161E+06 -0.3970809E+00  0.3920715E-01 -0.1183167E+01
  0.1400000E+01  0.1982776E+07 -0.3591180E+00  0.1701106E-01 -0.3106172E+01  0.6902091E+05 -0.1980232E+00  0.2289773E-01 -0.4932487E+00  0.8454219E+06 -0.3275501E+00  0.1666831E+01 -0.2842723E+01  0.1479856E+06 -0.3744992E+00  0.2115008E-03 -0.3015000E+01  0.3165409E+04  0.2945629E+01  0.3445264E-01  0.3377061E-02  0.9796579E+05 -0.3757681E+00  0.8005704E-01  0.3885031E+00
  0.1440000E+01  0.1854774E+07 -0.3393592E+00  0.1113789E-01 -0.3124731E+01  0.6212969E+05 -0.2078202E+00  0.1428516E-01 -0.6267638E+00  0.9423539E+06 -0.3093286E+00  0.4712770E+01  0.4351039E+00  0.1287945E+06 -0.3592309E+00  0.4131160E-03 -0.7393904E-01  0.3154244E+04  0.2933205E+01  0.2531696E-01  0.3088963E+01  0.8514775E+05 -0.3609013E+00  0.1710109E-01  0.2459000E+01
  0.1480000E+01  0.1733941E+07 -0.3248099E+00  0.6637222E-02  0.9315489E-01  0.5579053E+05 -0.2174424E+00  0.1588450E+00  0.3110382E+01  0.1025394E+07 -0.2949860E+00  0.1340569E+01  0.2941266E+00  0.1114499E+06 -0.3493644E+00  0.3493326E-03 -0.1121645E+00  0.3087160E+04  0.2905256E+01  0.1269893E-01 -0.3050020E+01  0.7355334E+05 -0.3515120E+00  0.2095283E-01 -0.2406423E+01
  0.1520000E+01  0.1620017E+07 -0.3157041E+00  0.4643376E-02  0.2718404E+01  0.4974017E+05 -0.2265140E+00  0.5293046E-01  0.2607130E+00  0.1094153E+07 -0.2845356E+00  0.4636211E+01 -0.5771276E-02  0.9595505E+05 -0.3453334E+00  0.1263213E-03 -0.3058451E+01  0.2979620E+04  0.2893809E+01  0.3988102E-02 -0.2943256E+00  0.6321093E+05 -0.3478695E+00  0.1512125E-01 -0.2962435E+01
  0.1560000E+01  0.1513955E+07 -0.3115954E+00  0.4116322E-02  0.3059388E+01  0.4420652E+05 -0.2344708E+00  0.7470929E-01  0.2974553E+01  0.1151301E+07 -0.2784569E+00  0.1597195E+01  0.1311023E+00  0.8228169E+05 -0.3481590E+00  0.3569422E-03  0.3875065E-01  0.2913701E+04  0.2886801E+01  0.7330612E-02  0.2131860E+01  0.5410276E+05 -0.3512263E+00  0.8527239E-02  0.1205036E+01
  0.1600000E+01  0.1416247E+07 -0.3120696E+00  0.4777231E-02  0.2890116E+01  0.3912888E+05 -0.2408268E+00  0.3084715E-01 -0.3072316E+01  0.1197338E+07 -0.2775761E+00  0.2688232E+01 -0.1976992E-01  0.7037775E+05 -0.3578956E+00  0.6750404E-04  0.1488900E+00  0.2848158E+04  0.2901656E+01  0.7148127E-02  0.1901291E-01  0.4621077E+05 -0.3614355E+00  0.3949961E-01 -0.2177811E+00
  0.1640000E+01  0.1326738E+07 -0.3170794E+00  0.6942973E-02 -0.1596459E+00  0.3423984E+05 -0.2467986E+00  0.6587713E-01  0.2773257E+01  0.1233309E+07 -0.2822431E+00  0.8364459E+00 -0.4887071E+00  0.6009730E+05 -0.3740829E+00  0.9920046E-04 -0.3122364E+01  0.2763808E+04  0.2908880E+01  0.2421665E-01  0.2806260E-01  0.3939837E+05 -0.3784249E+00  0.1113711E+00 -0.3008415E+01
  0.1680000E+01  0.1245530E+07 -0.3261947E+00  0.8830531E-02  0.2884763E+01  0.3000413E+05 -0.2535916E+00  0.1146937E-01 -0.1713466E+01  0.1261506E+07 -0.2914116E+00  0.1076299E+01 -0.3723461E+00  0.5122169E+05 -0.3960373E+00  0.1900183E-04 -0.3058789E+00  0.2653921E+04  0.2894475E+01  0.1056408E-01  0.3043509E+01  0.3352329E+05 -0.4014908E+00  0.2372191E-01  0.2660001E+01
  0.1720000E+01  0.1172166E+07 -0.3395094E+00  0.9635395E-02  0.7503697E-01  0.2608543E+05 -0.2616237E+00  0.4764992E-01  0.1382249E+00  0.1282962E+07 -0.3042662E+00  0.5509298E+00  0.2574598E+01  0.4356217E+05 -0.4237644E+00  0.1554519E-03 -0.6134889E-02  0.2505633E+04  0.2851776E+01  0.1285846E-01 -0.3024661E+01  0.2844286E+05 -0.4308447E+00  0.2660658E-01 -0.2951601E+01
  0.1760000E+01  0.1105936E+07 -0.3573060E+00  0.1868148E-02  0.1990758E+01  0.2278034E+05 -0.2705878E+00  0.8904524E-02  0.2780823E+01  0.1298401E+07 -0.3210224E+00  0.5685869E+00 -0.2588955E+01  0.3704945E+05 -0.4570476E+00  0.1663014E-03 -0.6599595E-01  0.2311573E+04  0.2822245E+01  0.1526955E-01 -0.2985649E+01  0.2413144E+05 -0.4656564E+00  0.2067492E-01 -0.2917955E-01
  0.1800000E+01  0.1047233E+07 -0.3789620E+00  0.9544848E-02  0.1149805E+00  0.1944164E+05 -0.2789688E+00  0.8634016E-02  0.3919108E+00  0.1311557E+07 -0.3411269E+00  0.9981574E+00 -0.7642086E+00  0.3156653E+05 -0.4974228E+00  0.1092238E-03 -0.9619343E-01  0.2163265E+04  0.2808059E+01  0.3119447E-02 -0.2597123E+01  0.2051015E+05 -0.5078102E+00  0.2404735E-01 -0.3070676E+00
  0.1840000E+01  0.9960081E+06 -0.4035631E+00  0.1972875E-01 -0.3098929E+01  0.1676991E+05 -0.2848120E+00  0.1384599E-01 -0.3046519E+01  0.1324015E+07 -0.3646040E+00  0.3000573E+01  0.3139368E+01  0.2701943E+05 -0.5435998E+00  0.4259448E-03  0.2463108E-01  0.2007125E+04  0.2846325E+01  0.2720540E-02  0.3067850E+00  0.1753762E+05 -0.5544423E+00  0.1075947E-01 -0.8616223E+00
  0.1880000E+01  0.9522158E+06 -0.4299505E+00  0.7760368E-03 -0.3116049E+01  0.1433507E+05 -0.2920974E+00  0.2510496E-01  0.3028399E+01  0.1337771E+07 -0.3906896E+00  0.8434561E+00 -0.7217560E-01  0.2324924E+05 -0.5941989E+00  0.2080082E-03  0.3209906E-01  0.1858532E+04  0.2885693E+01  0.1476261E-02  0.2736192E+01  0.1507949E+05 -0.6056699E+00  0.5173808E-02 -0.4798259E+00
  0.1920000E+01  0.9157375E+06 -0.4571497E+00  0.1037787E-01  0.2931788E+01  0.1200233E+05 -0.3021565E+00  0.5509648E-01  0.1255659E+00  0.1354097E+07 -0.4179780E+00  0.8226445E+00 -0.2632082E+00  0.2012577E+05 -0.6468479E+00  0.9202956E-04  0.3141592E+01  0.1723490E+04  0.2893667E+01  0.1052791E-01  0.3042819E+01  0.1304660E+05 -0.6593417E+00  0.1590768E-01  0.2366650E+01
  0.1960000E+01  0.8864419E+06 -0.4834644E+00  0.1461552E-01  0.6009925E-02  0.1017658E+05 -0.3173571E+00  0.1348099E-01 -0.3199413E+00  0.1375010E+07 -0.4444864E+00  0.1505082E+01  0.2279373E+01  0.1749299E+05 -0.7023607E+00  0.7067815E-04  0.1285391E+00  0.1610307E+04  0.2835869E+01  0.6741796E-03  0.1411695E+01  0.1133274E+05 -0.7170579E+00  0.1378907E-01  0.1630934E+01
  0.2000000E+01  0.8630629E+06 -0.5066043E+00  0.1479715E-01 -0.3074704E+01  0.8667158E+04 -0.3375535E+00  0.2042860E-01  0.2753263E+01  0.1398662E+07 -0.4681644E+00  0.1370319E+01  0.1307782E+01  0.1526062E+05 -0.7548676E+00  0.1101917E-03 -0.1345533E+00  0.1472122E+04  0.2752216E+01  0.4176363E-02  0.4051241E+00  0.9876173E+04 -0.7720156E+00  0.4348393E-02 -0.2965366E+01
  0.2040000E+01  0.8438274E+06 -0.5250367E+00  0.1181866E-01 -0.1269935E+00  0.7445520E+04 -0.3624714E+00  0.1647235E-01  0.1117222E+01  0.1423979E+07 -0.4867579E+00  0.1178771E+01  0.2744409E+01  0.1335608E+05 -0.8071216E+00  0.4123194E-04 -0.3037321E+01  0.1331807E+04  0.2674538E+01  0.4376412E-02  0.5059794E+00  0.8629978E+04 -0.8275848E+00  0.3539189E-02  0.3026956E+01
  0.2080000E+01  0.8263534E+06 -0.5377322E+00  0.5457147E-02  0.4687204E+00  0.6227937E+04 -0.3848552E+00  0.4598285E-01  0.3092009E+01  0.1448245E+07 -0.4993723E+00  0.1308555E+01  0.2692816E+01  0.1172720E+05 -0.8564822E+00  0.4950387E-04  0.2777185E+01  0.1208659E+04  0.2636011E+01  0.4931398E-02  0.1110986E+01  0.7563522E+04 -0.8800774E+00  0.3632732E-02 -0.2744297E+01
  0.2120000E+01  0.8082641E+06 -0.5451635E+00  0.1226111E-02  0.6214305E+00  0.5162005E+04 -0.3958773E+00  0.2548960E-01  0.2978103E+00  0.1467529E+07 -0.5063840E+00  0.2935772E+01  0.2956732E+01  0.1035399E+05 -0.9054613E+00  0.9675830E-04  0.6410956E-01  0.1028164E+04  0.2717651E+01  0.7522895E-02  0.3106605E+01  0.6668032E+04 -0.9276361E+00  0.1224810E-02 -0.2626839E+00
  0.2160000E+01  0.7880145E+06 -0.5480199E+00  0.6227829E-02 -0.2954909E+01  0.4085231E+04 -0.4105518E+00  0.2404146E-01 -0.3070918E+01  0.1479018E+07 -0.5089792E+00  0.1432107E+01 -0.4727174E-01  0.9142562E+04 -0.9508557E+00  0.6415190E-05 -0.2303612E+01  0.8251439E+03  0.2827313E+01  0.4291180E-02 -0.2882333E+01  0.5879144E+04 -0.9720918E+00  0.5948694E-03  0.1681642E+01
  0.2200000E+01  0.7645768E+06 -0.5497745E+00  0.2342800E-02  0.2200885E+01  0.3521551E+04 -0.4341480E+00  0.1831900E-01 -0.3726641E+00  0.1480107E+07 -0.5102494E+00  0.1337608E+01 -0.3138928E+01  0.8153768E+04 -0.9980498E+00  0.3544347E-04  0.3430239E+00  0.6893774E+03  0.2952652E+01  0.7962226E-03 -0.1659396E+01  0.5242793E+04 -0.1017735E+01  0.2410759E-02 -0.2719377E+01
  0.2240000E+01  0.7392071E+06 -0.5509420E+00  0.8725608E-02  0.3093747E+01  0.2698005E+04 -0.4688610E+00  0.1008692E-01  0.5278587E+00  0.1472823E+07 -0.5112900E+00  0.1789879E+01  0.5600833E+00  0.7308010E+04 -0.1041471E+01  0.1300693E-04  0.2805351E+01  0.7536530E+03  0.2899539E+01  0.2022412E-02 -0.2733199E+01  0.4706070E+04 -0.1060374E+01  0.5883290E-02  0.1999645E+01
  0.2280000E+01  0.7123629E+06 -0.5541194E+00  0.4126832E-02 -0.2788183E+01  0.2350941E+04 -0.5219228E+00  0.1644841E-01 -0.2530104E+00  0.1458143E+07 -0.5142756E+00  0.1108830E+01 -0.3729715E+00  0.6603107E+04 -0.1084224E+01  0.2218862E-04  0.1836978E+00  0.7112946E+03  0.2729815E+01  0.1832583E-02 -0.2777850E+01  0.4267107E+04 -0.1105431E+01  0.1631433E-02 -0.1008727E+01
  0.2320000E+01  0.6845849E+06 -0.5600089E+00  0.1519979E-01  0.3059835E+01  0.1810281E+04 -0.6065967E+00  0.3466781E-01 -0.2988605E+01  0.1436760E+07 -0.5196877E+00  0.1724074E+01  0.5607288E+00  0.6013695E+04 -0.1129294E+01  0.1073942E-04  0.3097178E+01  0.6800477E+03  0.2550682E+01  0.3351577E-02 -0.1267572E+00  0.3903152E+04 -0.1153026E+01  0.2722518E-02  0.2428118E+01
  0.2360000E+01  0.6573394E+06 -0.5682242E+00  0.3982306E-02  0.2880404E+01  0.1607562E+04 -0.6905936E+00  0.2116508E-01  0.2998718E+01  0.1411973E+07 -0.5277056E+00  0.3348702E+00 -0.1630065E+01  0.5512656E+04 -0.1171756E+01  0.6594332E-05 -0.2922924E+01  0.6892847E+03  0.2416806E+01  0.4922563E-03  0.3104472E+01  0.3596174E+04 -0.1199152E+01  0.1654586E-02 -0.1126225E+01
  0.2400000E+01  0.6309322E+06 -0.5799589E+00  0.1745322E-02  0.3051010E+01  0.1228615E+04 -0.7932661E+00  0.1070312E-01 -0.2871009E+01  0.1384852E+07 -0.5393315E+00  0.1099996E+01 -0.1013509E+01  0.5074357E+04 -0.1210587E+01  0.2217805E-04  0.3120091E+01  0.6219187E+03  0.2352283E+01  0.8296398E-03 -0.3048672E+01  0.3321609E+04 -0.1241082E+01  0.2479577E-02  0.2764760E+01
  0.2440000E+01  0.6057194E+06 -0.5950367E+00  0.1080835E-02  0.1462447E+01  0.9851197E+03 -0.8384143E+00  0.1114628E-01 -0.2973630E+01  0.1356850E+07 -0.5535408E+00  0.4882215E+00  0.2446090E+01  0.4720294E+04 -0.1251828E+01  0.3814813E-05  0.6356889E+00  0.4269952E+03  0.2459786E+01  0.3996539E-02  0.3052606E+01  0.3082541E+04 -0.1278709E+01  0.8576015E-03 -0.5426784E+00
  0.2480000E+01  0.5822364E+06 -0.6125725E+00  0.7519143E-02 -0.2412503E-01  0.4785158E+03 -0.1170205E+01  0.2850399E-01 -0.3140008E+01  0.1328529E+07 -0.5710861E+00  0.1828294E+01  0.1534071E+01  0.4403556E+04 -0.1279608E+01  0.6154666E-05 -0.2806060E+01  0.2346530E+03  0.2736169E+01  0.1582826E-02  0.3124429E+01  0.2866269E+04 -0.1301809E+01  0.1984116E-02 -0.1912603E+01
  0.2520000E+01  0.5601858E+06 -0.6330001E+00  0.2791078E-02 -0.2982219E+01  0.4282076E+03 -0.1299518E+01  0.1103593E-01 -0.3017025E+01  0.1301378E+07 -0.5915865E+00  0.1836321E+01  0.4804116E+00  0.4105507E+04 -0.1302056E+01  0.7540930E-05  0.3125784E+01  0.1318076E+03 -0.2766286E+01  0.1517318E-02 -0.3136201E+01  0.2665452E+04 -0.1319498E+01  0.4441210E-02  0.1539220E+01
  0.2560000E+01  0.5403839E+06 -0.6552119E+00  0.3044920E-02 -0.3135557E+01  0.3245576E+03 -0.1865961E+01  0.1217942E-01  0.3578413E+00  0.1276502E+07 -0.6145915E+00  0.9947299E+00 -0.2527021E+01  0.3836289E+04 -0.1315775E+01  0.9135279E-05  0.5875581E-01  0.1420713E+03 -0.2110476E+01  0.1204091E-02 -0.1344429E+00  0.2486552E+04 -0.1328241E+01  0.2190930E-02 -0.1161496E+01
  0.2600000E+01  0.5228600E+06 -0.6787828E+00  0.4952795E-02 -0.3014441E+01  0.3685804E+03 -0.1956198E+01  0.6034509E-03  0.1147523E+01  0.1254942E+07 -0.6387658E+00  0.4849202E+00  0.2352975E+01  0.3613884E+04 -0.1328416E+01  0.1633700E-05 -0.6690431E+00  0.1147220E+03 -0.2420102E+01  0.6295023E-03 -0.1021418E+00  0.2346551E+04 -0.1337158E+01  0.5360310E-02  0.1634397E+01
  0.2640000E+01  0.5075430E+06 -0.7027068E+00  0.2578482E-02  0.1083995E+00  0.5268223E+03 -0.1540075E+01  0.2028193E-01  0.3138761E+01  0.1236786E+07 -0.6637269E+00  0.1039325E+01  0.1754904E+01  0.3414178E+04 -0.1335662E+01  0.1716740E-05  0.1334239E+01  0.1483684E+03  0.2781004E+01  0.4992432E-04  0.5130560E+00  0.2227450E+04 -0.1342223E+01  0.3773818E-02  0.1551701E+01
  0.2680000E+01  0.4939113E+06 -0.7265208E+00  0.7598863E-02 -0.8255546E-02  0.4915719E+03 -0.2207977E+01  0.1068855E-01  0.5272747E+00  0.1221408E+07 -0.6882361E+00  0.4842629E+00  0.2201359E+01  0.3226499E+04 -0.1345593E+01  0.3077008E-05  0.5503861E+00  0.2602727E+03  0.2385230E+01  0.3733235E-03 -0.1892566E+01  0.2117064E+04 -0.1350845E+01  0.1267247E-02 -0.1364945E+01
  0.2720000E+01  0.4819290E+06 -0.7479106E+00  0.1681825E-02  0.2106698E+01  0.6417248E+03 -0.1668378E+01  0.8318486E-02 -0.5246464E+00  0.1208725E+07 -0.7112226E+00  0.5690848E+00 -0.2032082E+01  0.3045754E+04 -0.1348500E+01  0.1623885E-05  0.7464567E+00  0.3489304E+03  0.2244264E+01  0.8785736E-03  0.1864237E+00  0.2012753E+04 -0.1354207E+01  0.2505165E-03  0.2529849E+01
  0.2760000E+01  0.4708735E+06 -0.7670371E+00  0.1094426E-01  0.3024056E+01  0.5781563E+03 -0.2363388E+01  0.1259734E-01  0.1027384E+00  0.1196948E+07 -0.7315522E+00  0.5330752E+00 -0.4484820E+00  0.2892476E+04 -0.1353145E+01  0.6336059E-06  0.2289626E+01  0.3628745E+03  0.2172131E+01  0.3735058E-03 -0.1553381E+01  0.1923441E+04 -0.1360820E+01  0.1282590E-02 -0.1182247E+01
  0.2800000E+01  0.4600792E+06 -0.7843408E+00  0.4553098E-02 -0.2868429E+01  0.5917305E+03 -0.2575583E+01  0.4295732E-02  0.1548867E+01  0.1184670E+07 -0.7492628E+00  0.1622411E+01 -0.2217370E+01  0.2760042E+04 -0.1363988E+01  0.2318460E-05 -0.3136207E+00  0.2363763E+03  0.2138202E+01  0.2605150E-03 -0.2770999E+01  0.1835115E+04 -0.1372493E+01  0.1521944E-02  0.3765410E+00
  0.2840000E+01  0.4489290E+06 -0.7995307E+00  0.3866424E-03  0.1552667E+00  0.6032316E+03 -0.2708356E+01  0.2517864E-01  0.2807802E+01  0.1169972E+07 -0.7653424E+00  0.5709797E+00 -0.5543784E-01  0.2611563E+04 -0.1368049E+01  0.5825573E-05  0.1592615E+00  0.6527339E+02  0.1995884E+01  0.5492111E-03 -0.1676154E-01  0.1725403E+04 -0.1375218E+01  0.3435467E-02  0.1799304E+01
  0.2880000E+01  0.4373913E+06 -0.8135422E+00  0.5577021E-02 -0.3092333E+01  0.7184407E+03 -0.3019394E+01  0.5482694E-02 -0.1570178E+00  0.1152647E+07 -0.7807487E+00  0.2179948E+00 -0.7045764E+00  0.2473261E+04 -0.1363109E+01  0.3527895E-05  0.1526493E+00  0.9243692E+02 -0.8280155E+00  0.4935928E-03  0.1467321E+00  0.1624832E+04 -0.1368538E+01  0.3716574E-02 -0.1808816E+01
  0.2920000E+01  0.4250579E+06 -0.8295754E+00  0.4012232E-02 -0.3047662E+01  0.5930828E+03 -0.2607477E+01  0.7191962E-02 -0.4843210E-02  0.1132571E+07 -0.7966299E+00  0.6932054E+00 -0.1362345E+00  0.2351047E+04 -0.1369056E+01  0.2307756E-05  0.1947706E+01  0.2203080E+03 -0.9235604E+00  0.7923337E-03 -0.7571820E+00  0.1536743E+04 -0.1372288E+01  0.2057467E-02 -0.1756919E+01
  0.2960000E+01  0.4126330E+06 -0.8454403E+00  0.4021807E-02  0.3025729E+01  0.5833820E+03 -0.2207390E+01  0.2205852E-02  0.4533190E+00  0.1110926E+07 -0.8140565E+00  0.4293861E+00 -0.2161284E+01  0.2209882E+04 -0.1360270E+01  0.2832200E-06  0.2034444E+01  0.2847550E+03 -0.9586823E+00  0.7702284E-03 -0.2434872E+01  0.1438271E+04 -0.1360789E+01  0.4956050E-03 -0.1065386E+01
  0.3000000E+01  0.4003411E+06 -0.8631932E+00  0.8136268E-02  0.3052148E+01  0.6169755E+03 -0.2131881E+01  0.2512695E-02  0.2766220E+01  0.1088385E+07 -0.8327101E+00  0.7950487E+00  0.2391547E+01  0.2086060E+04 -0.1356750E+01  0.1786913E-05  0.1654284E+01  0.2217501E+03 -0.9709364E+00  0.1577420E-03  0.1122068E+01  0.1356810E+04 -0.1354860E+01  0.4084501E-03 -0.1305531E+01
  0.3040000E+01  0.3884019E+06 -0.8827056E+00  0.1485981E-03 -0.1139008E+01  0.6448049E+03 -0.2127718E+01  0.3937458E-01  0.3090344E+01  0.1065667E+07 -0.8533789E+00  0.3627264E+00 -0.1920339E+01  0.1972806E+04 -0.1350327E+01  0.1064417E-05 -0.2908498E+01  0.6560480E+02 -0.9284229E+00  0.5423168E-03 -0.1608105E+01  0.1286541E+04 -0.1346570E+01  0.1724974E-02 -0.1470087E+01
  0.3080000E+01  0.3768494E+06 -0.9044791E+00  0.1918915E-02 -0.1443234E+00  0.6992120E+03 -0.2027822E+01  0.1406447E-01  0.2151184E+00  0.1043405E+07 -0.8762410E+00  0.7659790E+00 -0.3099330E+01  0.1860552E+04 -0.1348605E+01  0.1092791E-04 -0.1449824E+01  0.9237371E+02  0.2071773E+01  0.1116035E-03 -0.2242205E+01  0.1218450E+04 -0.1343335E+01  0.4435887E-03 -0.3988043E-01
  0.3120000E+01  0.3661155E+06 -0.9276596E+00  0.4868041E-03  0.2150743E-01  0.7188731E+03 -0.2061974E+01  0.1499910E-01 -0.2996023E+01  0.1022359E+07 -0.9008122E+00  0.2504898E+01 -0.1858400E+01  0.1762444E+04 -0.1344351E+01  0.3940251E-05  0.1514039E+01  0.2391710E+03  0.2088812E+01  0.4749240E-03  0.1401786E+01  0.1162625E+04 -0.1338754E+01  0.1055111E-02 -0.2850224E+01