VARIABLES="w (rad/s)"
"A   1   1" "B   1   1"
"A   1   2" "B   1   2"
"A   1   3" "B   1   3"
"A   1   4" "B   1   4"
"A   1   5" "B   1   5"
"A   1   6" "B   1   6"
"A   2   1" "B   2   1"
"A   2   2" "B   2   2"
"A   2   3" "B   2   3"
"A   2   4" "B   2   4"
"A   2   5" "B   2   5"
"A   2   6" "B   2   6"
Zone t="Motion of body    1 in DoF   1",I=   500,F=POINT
  0.4000000E-01  0.2453629E+07  0.6619280E+02  0.4090343E-04 -0.8701650E-07  0.3015232E+01  0.2639119E-01  0.8499622E-02  0.6146729E-07 -0.1714571E+07 -0.5278767E+02  0.1444161E+00  0.7231499E-04  0.3169198E+06  0.1090797E+02  0.1192093E-04 -0.1396984E-08 -0.1335001E+01 -0.2831938E-02 -0.4172325E-03  0.5587935E-08  0.2020458E+06  0.7313954E+01 -0.1067638E+00  0.8024741E-05
  0.8000000E-01  0.2481264E+07  0.5353737E+03 -0.3158672E-03  0.1163887E-06  0.2435017E+01  0.3631030E-01 -0.1488924E-01  0.5733222E-05 -0.1687459E+07 -0.4171592E+03  0.2507873E+01 -0.6294530E-04  0.3189900E+06  0.8771210E+02 -0.1192093E-04 -0.3725290E-08 -0.1263380E+01  0.1567839E-01  0.2264977E-03 -0.4824251E-06  0.2035305E+06  0.5880287E+02  0.2874136E-01  0.7173233E-04
  0.1200000E+00  0.2506099E+07  0.1841257E+04  0.1980413E-03 -0.6442305E-06  0.1416524E+01  0.3434110E-01 -0.4069011E-02  0.1661479E-05 -0.1690683E+07 -0.1421517E+04  0.2944299E+01 -0.3485927E-02  0.3219642E+06  0.3007091E+03  0.0000000E+00  0.4470348E-07 -0.1291529E+01  0.1192248E-01  0.1486143E-02 -0.7078052E-06  0.2055589E+06  0.2015984E+03 -0.1630147E+00  0.1681596E-03
  0.1600000E+00  0.2532621E+07  0.4463037E+04 -0.1885995E-03  0.5673758E-06  0.3394890E+01  0.1399959E+00  0.5257130E-02 -0.2935529E-05 -0.1698418E+07 -0.3417443E+04  0.6285320E+01  0.1348329E-01  0.3253577E+06  0.7266602E+03 -0.1192093E-04 -0.5960464E-07 -0.1420403E+01  0.1516700E-02 -0.2980232E-03 -0.1534820E-05  0.2078455E+06  0.4871711E+03 -0.5214214E-01  0.3954023E-03
  0.2000000E+00  0.2560971E+07  0.8931511E+04 -0.1080707E-03 -0.5096505E-05 -0.1130905E+01 -0.2835321E+00  0.7362366E-02 -0.8583069E-05 -0.1707214E+07 -0.6777316E+04  0.2824831E+01  0.1082461E-01  0.3290275E+06  0.1449358E+04  0.1907349E-04 -0.5960464E-07 -0.5732727E+00 -0.6005764E-03  0.3623962E-03 -0.1817942E-05  0.2103073E+06  0.9716881E+03  0.5872726E-01  0.3336370E-03
  0.2400000E+00  0.2592202E+07  0.1587064E+05  0.2222595E-03 -0.4317726E-05  0.5063375E+00 -0.2124639E+00 -0.1406670E-02 -0.1752377E-04 -0.1717826E+07 -0.1192552E+05 -0.1028725E+02  0.1080684E-01  0.3330644E+06  0.2565580E+04  0.1589457E-04  0.1192093E-06 -0.8761724E+00 -0.4164886E-01  0.4450480E-03 -0.5483627E-05  0.2130127E+06  0.1720003E+04  0.7367134E-02 -0.1539052E-02
  0.2800000E+00  0.2627034E+07  0.2600637E+05  0.5556401E-03 -0.2124440E-05  0.1651546E+01  0.8057261E-01 -0.2595356E-02 -0.9119511E-04 -0.1727064E+07 -0.1930062E+05 -0.5727993E+01  0.5480640E-01  0.3374088E+06  0.4184643E+04  0.1362392E-04  0.0000000E+00 -0.8598872E+00  0.2825832E-01 -0.7220677E-03 -0.5722046E-05  0.2159206E+06  0.2805293E+04  0.6663459E-01 -0.4898906E-02
  0.3200000E+00  0.2665315E+07  0.4019403E+05 -0.2051813E-03  0.4801968E-06 -0.3049850E+00 -0.1430979E+00  0.1444817E-01 -0.2428293E-03 -0.1735700E+07 -0.2940378E+05 -0.1153298E+01 -0.1636212E+00  0.3420682E+06  0.6432920E+04  0.3576279E-04 -0.2384186E-06 -0.2791405E+00  0.7570267E-02 -0.1084805E-02 -0.2002716E-04  0.2190336E+06  0.4312149E+04 -0.3528595E-01 -0.2404451E-02
  0.3600000E+00  0.2706601E+07  0.5944255E+05  0.1318733E-03  0.1384047E-04  0.1107195E+01  0.2527142E+00  0.3147125E-02  0.9417534E-04 -0.1741934E+07 -0.4274034E+05 -0.3972191E+01  0.1227598E+00  0.3468927E+06  0.9454287E+04  0.1059638E-04  0.4768372E-06 -0.5986531E+00 -0.5595779E-01 -0.7417467E-03  0.1525879E-04  0.2222563E+06  0.6337019E+04 -0.2719455E+00  0.5840063E-02
  0.3999999E+00  0.2749884E+07  0.8491963E+05 -0.6629272E-05 -0.5109894E-05 -0.7049563E-01 -0.6612206E-01  0.5645753E-02 -0.5421638E-03 -0.1747168E+07 -0.5991180E+05 -0.7581034E+01 -0.4149640E-01  0.3518051E+06  0.1341302E+05  0.0000000E+00 -0.4768372E-06 -0.3522492E+00  0.5108261E-01  0.1678467E-02 -0.1430511E-05  0.2255329E+06  0.8989553E+04  0.2640725E-01  0.1046944E-01
  0.4400000E+00  0.2795008E+07  0.1180277E+06 -0.1576388E-03  0.8807947E-06 -0.1910123E+00 -0.2832146E+00 -0.2413663E-01  0.2541542E-03 -0.1749198E+07 -0.8145927E+05  0.9507635E+00  0.1457868E+00  0.3566898E+06  0.1849786E+05 -0.2600930E-04  0.0000000E+00 -0.2145941E+00 -0.1159668E-01 -0.1369823E-02 -0.5722046E-05  0.2287865E+06  0.1239606E+05 -0.3003467E+00 -0.1169348E-01
  0.4800000E+00  0.2841241E+07  0.1603968E+06 -0.7834432E-03  0.2082156E-04  0.1092911E+01  0.9035110E-01  0.2152920E-01 -0.1215935E-03 -0.1747350E+07 -0.1079782E+06  0.2757116E+01  0.2037547E+00  0.3613413E+06  0.2491659E+05  0.0000000E+00 -0.2861023E-05 -0.9604772E+00 -0.1071892E+00  0.3655752E-03 -0.3814697E-05  0.2318878E+06  0.1669560E+05  0.2613704E+00 -0.1686573E-01
  0.5200000E+00  0.2887110E+07  0.2138445E+06  0.5966890E-04 -0.1909215E-04  0.2270156E+01  0.5205307E+00  0.4086128E-02 -0.8020401E-03 -0.1740441E+07 -0.1399786E+06 -0.4352684E+01 -0.3845944E+00  0.3655693E+06  0.3289525E+05  0.0000000E+00 -0.2861023E-05 -0.7484436E+00  0.6396484E-01  0.5722046E-03 -0.6675720E-05  0.2346945E+06  0.2203840E+05  0.1807726E+00  0.1231861E-01
  0.5600000E+00  0.2930969E+07  0.2804773E+06 -0.6232668E-04  0.1006335E-03  0.1998629E+01  0.4966507E+00 -0.1243864E-01  0.3360748E-02 -0.1726245E+07 -0.1777464E+06 -0.1219729E+01 -0.5052071E+00  0.3691142E+06  0.4268362E+05  0.0000000E+00  0.0000000E+00 -0.1015636E+01 -0.1263428E+00  0.3950936E-03  0.4768372E-05  0.2370395E+06  0.2859159E+05 -0.1631601E+00 -0.2991295E-01
  0.6000000E+00  0.2971309E+07  0.3626528E+06 -0.5569237E-03 -0.5784699E-04  0.2605235E+01  0.1016022E+01  0.1450856E-01  0.2037048E-02 -0.1703270E+07 -0.2214481E+06  0.4930782E+00 -0.1057911E+01  0.3716083E+06  0.5452274E+05  0.1271566E-04  0.1907349E-05 -0.1291707E+01 -0.1999435E+00 -0.1398722E-03 -0.8392334E-04  0.2386810E+06  0.3651584E+05 -0.5608876E-01  0.6260300E-01
  0.6400000E+00  0.3004416E+07  0.4625573E+06 -0.6455512E-03  0.9900310E-04  0.3157806E+01  0.1591469E+01  0.2074242E-02 -0.2553940E-02 -0.1671747E+07 -0.2711293E+06 -0.3001422E+01  0.1337176E+01  0.3726216E+06  0.6862227E+05  0.2384186E-04 -0.1907349E-05 -0.1365662E+01 -0.1359863E+00 -0.2145767E-03 -0.1716614E-04  0.2393263E+06  0.4594959E+05 -0.1500368E+00 -0.8016586E-01
  0.6800000E+00  0.3027542E+07  0.5825302E+06 -0.5241989E-03  0.7179196E-04  0.3375693E+01  0.1863510E+01  0.1860226E-01 -0.8792877E-03 -0.1627874E+07 -0.3257586E+06 -0.2870683E+01 -0.6200838E-01  0.3717350E+06  0.8517265E+05 -0.1121970E-04  0.3814697E-05 -0.1010311E+01 -0.2389984E+00 -0.1222947E-02 -0.2803802E-03  0.2386915E+06  0.5701865E+05 -0.5609849E-03 -0.2757072E-01
  0.7200000E+00  0.3036014E+07  0.7244225E+06 -0.3777521E-03  0.1524789E-03  0.2381982E+01  0.5584869E+00 -0.7682376E-02  0.2874374E-02 -0.1570294E+07 -0.3837244E+06  0.1665062E+00  0.7979369E+00  0.3683469E+06  0.1042477E+06  0.1059638E-04  0.0000000E+00 -0.6504483E+00 -0.4518127E-01  0.1377530E-03  0.1335144E-03  0.2363815E+06  0.6977236E+05 -0.2904468E+00 -0.5272675E-01
  0.7599999E+00  0.3026533E+07  0.8900599E+06  0.2899532E-03  0.3704951E-03  0.7443881E+00 -0.1599686E+01  0.9938292E-02  0.1781464E-02 -0.1497059E+07 -0.4426529E+06  0.9377951E+01  0.1031016E+01  0.3619025E+06  0.1258126E+06  0.2007736E-04  0.3814697E-05 -0.2987511E+00  0.5465698E-01  0.9034811E-04 -0.3242493E-03  0.2320249E+06  0.8418338E+05  0.1102247E-01  0.1080704E+00
  0.8000000E+00  0.2990069E+07  0.1076673E+07  0.1689130E-03  0.1367638E-04 -0.2444458E+00 -0.3116608E+01  0.8392334E-03 -0.2994537E-02 -0.1409230E+07 -0.4988147E+06  0.5264835E+01  0.3755909E+01  0.3515662E+06  0.1492781E+06  0.9536743E-05 -0.7629395E-05  0.7560730E-01  0.1321411E-01  0.5054474E-03 -0.2861023E-03  0.2250668E+06  0.9985607E+05  0.1101494E-01  0.2355194E-01
  0.8400000E+00  0.2925547E+07  0.1284296E+07  0.4334890E-03  0.7910450E-04 -0.1232329E+00 -0.3766785E+01  0.1516796E-02  0.2059937E-02 -0.1305828E+07 -0.5473901E+06 -0.5577433E+01 -0.1303179E+01  0.3372165E+06  0.1743239E+06 -0.9082612E-05  0.7629395E-05  0.1134237E+00  0.1298828E+00 -0.1053583E-02 -0.3051758E-04  0.2154160E+06  0.1165688E+06 -0.2567836E+00  0.1462555E+00
  0.8800000E+00  0.2826834E+07  0.1507016E+07 -0.1236230E-03  0.4126954E-03 -0.5201860E-02 -0.4412445E+01 -0.5201860E-03  0.2189636E-02 -0.1189080E+07 -0.5816530E+06  0.7935689E+01  0.1299125E+01  0.3184269E+06  0.1999006E+06  0.0000000E+00 -0.1525879E-04  0.8392334E-01  0.1054993E+00  0.4161488E-03  0.8621216E-03  0.2028004E+06  0.1336243E+06  0.2221194E+00 -0.3368378E-01
  0.9200000E+00  0.2691907E+07  0.1737333E+07  0.1295379E-03  0.2874618E-03  0.2797002E+00 -0.4947021E+01 -0.7529880E-02  0.4570007E-02 -0.1062463E+07 -0.5945402E+06  0.3312586E+01  0.4095935E+01  0.2952258E+06  0.2246603E+06  0.1658564E-04  0.0000000E+00  0.2882584E+00  0.1685181E+00  0.4229338E-03  0.8087158E-03  0.1872407E+06  0.1501148E+06  0.1402813E+00 -0.8076477E-01
  0.9600000E+00  0.2521379E+07  0.1964574E+07  0.2648708E-03  0.6735054E-03  0.8140564E+00 -0.5073425E+01 -0.4776319E-02  0.1480103E-02 -0.9328519E+06 -0.5805822E+06 -0.3170629E+00  0.1463708E+01  0.2681663E+06  0.2469990E+06 -0.7947287E-05  0.7629395E-05  0.2736410E+00  0.2875977E+00 -0.1112620E-03 -0.1068115E-03  0.1691221E+06  0.1649713E+06  0.8663337E-01 -0.1897964E+00
  0.1000000E+01  0.2318894E+07  0.2175122E+07 -0.2704210E-03 -0.3652832E-03  0.6318359E+00 -0.4786987E+01 -0.3295898E-02 -0.1067352E-01 -0.8094648E+06 -0.5365024E+06 -0.1831779E+00  0.1697084E+01  0.2383153E+06  0.2652520E+06  0.1525879E-04  0.0000000E+00  0.4465942E+00  0.4570312E+00 -0.6103516E-03 -0.2517700E-03  0.1491499E+06  0.1770740E+06 -0.1121597E+00 -0.1898270E+00
  0.1040000E+01  0.2093146E+07  0.2358356E+07  0.2191328E-04 -0.7252531E-03  0.1802298E+00 -0.4503052E+01 -0.5626678E-02  0.1380920E-02 -0.6975421E+06 -0.4573805E+06  0.2034705E+01 -0.3804064E+01  0.2070504E+06  0.2781802E+06 -0.7335957E-05  0.7629395E-05  0.6117014E+00  0.7270508E+00  0.3667978E-04 -0.3890991E-03  0.1282468E+06  0.1855974E+06  0.7063059E-01  0.2227783E-02
  0.1080000E+01  0.1853415E+07  0.2503209E+07  0.6427042E-05 -0.3087572E-03 -0.1432913E+00 -0.4127747E+01 -0.1203042E-01  0.3578186E-02 -0.6065329E+06 -0.3445380E+06 -0.6211106E+01  0.3675213E+00  0.1759384E+06  0.2848342E+06  0.0000000E+00  0.1525879E-04  0.6523415E+00  0.7153320E+00  0.8477105E-04  0.1144409E-03  0.1074631E+06  0.1899231E+06  0.1487308E+00 -0.2719040E+00
  0.1120000E+01  0.1611325E+07  0.2603428E+07 -0.3122823E-03  0.9733957E-04 -0.3639494E+00 -0.3629333E+01 -0.4856927E-02  0.2223969E-01 -0.5408715E+06 -0.2005612E+06 -0.1161324E+01 -0.3703665E+01  0.1465660E+06  0.2847342E+06 -0.3405980E-05  0.1525879E-04  0.6684712E+00  0.9756470E+00  0.1498631E-03 -0.6866455E-04  0.8786396E+05  0.1897263E+06  0.1435314E+00  0.1337509E+00
  0.1160000E+01  0.1378117E+07  0.2656740E+07  0.8935790E-04 -0.6324087E-03 -0.3773656E+00 -0.2790466E+01  0.1578495E-03 -0.4882813E-03 -0.5041820E+06 -0.3456972E+05  0.1621310E+01  0.5568525E+01  0.1203665E+06  0.2781837E+06  0.0000000E+00 -0.2288818E-04  0.5372673E+00  0.7846680E+00  0.2170431E-03 -0.8850098E-03  0.7041624E+05  0.1852335E+06  0.5236987E-01  0.1065598E+00
  0.1200000E+01  0.1163589E+07  0.2663198E+07  0.8643416E-04 -0.2910184E-03 -0.3400421E+00 -0.1797607E+01  0.4132589E-04 -0.2243042E-02 -0.4975114E+06  0.1419266E+06 -0.3409310E+01 -0.6731762E+01  0.9838904E+05  0.2660379E+06  0.0000000E+00 -0.2288818E-04  0.2889760E+00  0.6018677E+00 -0.1462301E-03 -0.3204346E-03  0.5580774E+05  0.1770038E+06 -0.7635752E-02 -0.2181244E-01
  0.1240000E+01  0.9739624E+06  0.2629448E+07 -0.7782430E-04  0.3566580E-03 -0.2525822E+00 -0.1256042E+01 -0.8118537E-02  0.9483337E-02 -0.5175067E+06  0.3241519E+06 -0.8206336E+00 -0.1175304E+01  0.8093382E+05  0.2495761E+06 -0.1538184E-05 -0.1525879E-04  0.2559785E+00  0.5361938E+00 -0.6183501E-03  0.3433228E-03  0.4423023E+05  0.1658881E+06 -0.3145279E-01  0.2901993E+00
  0.1280000E+01  0.8121896E+06  0.2561124E+07 -0.4942224E-04  0.8401845E-04 -0.3015995E+00 -0.1422241E+01 -0.3102422E-02  0.1525879E-02 -0.5623024E+06  0.5027139E+06  0.8242294E+00 -0.3202175E+01  0.6798466E+05  0.2300764E+06 -0.2980232E-05 -0.7629395E-05  0.3407955E+00  0.7033081E+00 -0.1192093E-04 -0.1754761E-03  0.3566129E+05  0.1527655E+06  0.3591180E-02 -0.4007721E-01
  0.1320000E+01  0.6787589E+06  0.2466414E+07 -0.3212556E-05  0.5711677E-03 -0.2251596E+00 -0.1132874E+01  0.1603907E-02  0.3761292E-02 -0.6266302E+06  0.6730724E+06  0.7963917E+00 -0.2202064E+01  0.5928051E+05  0.2087157E+06  0.1444961E-05  0.0000000E+00  0.3316706E+00  0.7651367E+00 -0.1069271E-03  0.2822876E-03  0.2993187E+05  0.1384185E+06  0.3566164E-01 -0.4604340E-01
  0.1360000E+01  0.5726975E+06  0.2352789E+07  0.3976347E-04 -0.4270405E-04 -0.3818512E+00 -0.1057861E+01 -0.6459741E-02  0.4249573E-02 -0.7047119E+06  0.8285466E+06 -0.8056970E+00  0.1426330E+01  0.5442314E+05  0.1866328E+06 -0.1402462E-05  0.7629395E-05  0.3570781E+00  0.7044067E+00 -0.9256251E-04 -0.6866455E-04  0.2677716E+05  0.1236290E+06  0.3291158E-01 -0.1625824E+00
  0.1400000E+01  0.4922999E+06  0.2227440E+07 -0.2409005E-04 -0.1261325E-03 -0.4296003E+00 -0.9443359E+00  0.1340594E-02  0.5111694E-02 -0.7905228E+06  0.9651052E+06  0.3307792E+00 -0.2401627E+01  0.5281738E+05  0.1648653E+06  0.1362392E-05  0.7629395E-05  0.3485979E+00  0.6137695E+00  0.2479553E-03  0.2517700E-03  0.2579681E+05  0.1090741E+06  0.6799698E-02  0.1616096E+00
  0.1440000E+01  0.4338396E+06  0.2096407E+07 -0.2241589E-04 -0.5601963E-05 -0.3577126E+00 -0.7145996E+00 -0.2079540E-02  0.4276276E-02 -0.8803244E+06  0.1083184E+07 -0.5097051E+00 -0.3018263E+01  0.5369491E+05  0.1440245E+06  0.1324548E-05  0.3814697E-05  0.2884335E+00  0.4433594E+00  0.4741880E-03 -0.3890991E-03  0.2647394E+05  0.9515114E+05 -0.2412796E-01  0.1604462E-01
  0.1480000E+01  0.3939559E+06  0.1963816E+07 -0.1798864E-04 -0.3255177E-03 -0.2822464E+00 -0.6350098E+00  0.5541621E-03  0.3082275E-02 -0.9719631E+06  0.1182513E+07 -0.5747408E+00  0.1097923E+01  0.5639523E+05  0.1244762E+06 -0.1288749E-05  0.3814697E-05  0.2549661E+00  0.3631287E+00  0.2371298E-03 -0.4196167E-04  0.2835792E+05  0.8208296E+05  0.5173039E-02  0.2088547E-01
  0.1520000E+01  0.3701938E+06  0.1831616E+07  0.2868502E-04 -0.9018337E-04 -0.2713254E+00 -0.5689087E+00  0.6500043E-02 -0.7350922E-02 -0.1063108E+07  0.1261398E+07 -0.9121280E+00 -0.3253560E+01  0.6047452E+05  0.1064649E+06 -0.2509669E-05 -0.1907349E-05  0.2298255E+00  0.2600403E+00  0.1179545E-03 -0.9155273E-04  0.3114495E+05  0.7005903E+05 -0.3198323E-01 -0.5148697E-01
  0.1560000E+01  0.3594152E+06  0.1702911E+07 -0.3015620E-04  0.2006275E-03 -0.1675532E+00 -0.4227753E+00 -0.2839015E-02  0.1716614E-02 -0.1151211E+07  0.1322839E+07  0.5565643E+00 -0.4383326E-01  0.6556686E+05  0.9017402E+05 -0.2445319E-05 -0.1907349E-05  0.1931215E+00  0.1665344E+00  0.4572746E-03 -0.4196167E-04  0.3460104E+05  0.5919866E+05 -0.1018793E+00 -0.2463531E-01
  0.1600000E+01  0.3589611E+06  0.1579743E+07  0.5287897E-04  0.7178372E-04 -0.1120377E+00 -0.3439484E+00  0.8468628E-02  0.2098083E-04 -0.1233904E+07  0.1367658E+07  0.7471657E+00  0.2298059E+01  0.7130326E+05  0.7574506E+05  0.2384186E-05 -0.1907349E-05  0.1548576E+00  0.1206055E+00  0.5245209E-04  0.1144409E-03  0.3847243E+05  0.4962355E+05 -0.1391172E-01 -0.5433083E-01
  0.1640000E+01  0.3666986E+06  0.1463234E+07  0.2077375E-06  0.4134031E-03 -0.2331617E-01 -0.2617035E+00 -0.2793568E-02 -0.1602173E-03 -0.1309579E+07  0.1397801E+07  0.3908890E+00  0.2375521E+01  0.7736283E+05  0.6316716E+05 -0.6978105E-05  0.0000000E+00  0.1367150E+00  0.5517578E-01  0.2419076E-03  0.1907349E-04  0.4255853E+05  0.4129184E+05 -0.3813767E-01  0.4132080E-01
  0.1680000E+01  0.3806477E+06  0.1354712E+07  0.9359341E-04  0.2935152E-04 -0.5820138E-01 -0.2524185E+00 -0.2829234E-02 -0.6828308E-03 -0.1378140E+07  0.1416063E+07  0.7907283E+00  0.1581777E+01  0.8349597E+05  0.5224679E+05 -0.4541306E-05 -0.9536743E-06  0.1414889E+00  0.4940796E-01 -0.7039025E-04  0.1373291E-03  0.4668982E+05  0.3407198E+05 -0.1317206E-01 -0.1651764E-01
  0.1720000E+01  0.3996412E+06  0.1254222E+07  0.1059921E-05 -0.2998722E-04 -0.1501216E+00 -0.2382584E+00  0.2661417E-04  0.2307892E-03 -0.1439604E+07  0.1423395E+07  0.1385706E+01  0.2219963E+01  0.8955371E+05  0.4276096E+05 -0.2217847E-05  0.0000000E+00  0.1652030E+00  0.6779480E-01  0.1197637E-03  0.7438660E-04  0.5076851E+05  0.2778682E+05  0.5409773E-01  0.4826927E-01
  0.1760000E+01  0.4227225E+06  0.1161378E+07 -0.4161464E-04 -0.6170831E-04 -0.9833249E-01 -0.1800003E+00 -0.3394214E-02 -0.8754730E-03 -0.1493949E+07  0.1420324E+07 -0.1145660E+01 -0.2918508E+00  0.9542809E+05  0.3462054E+05  0.0000000E+00  0.4768372E-06  0.1534549E+00  0.4648590E-01 -0.4334883E-04 -0.4673004E-04  0.5471202E+05  0.2239848E+05 -0.6955320E-02 -0.7107735E-02
  0.1800000E+01  0.4486360E+06  0.1076605E+07 -0.9059722E-04 -0.9086044E-04 -0.4679362E-01 -0.1494980E+00 -0.2517700E-02  0.1138687E-02 -0.1541544E+07  0.1411288E+07  0.2197896E+00  0.1036385E+01  0.1010744E+06  0.2768495E+05  0.0000000E+00  0.9536743E-06  0.1635403E+00  0.2972412E-01  0.1017253E-03  0.6294250E-04  0.5849804E+05  0.1780944E+05 -0.5089654E-01 -0.1442623E-01
  0.1840000E+01  0.4763305E+06  0.9999852E+06 -0.2115078E-03  0.1244768E-03 -0.5121646E-01 -0.1007385E+00  0.2550042E-02  0.1636505E-02 -0.1582640E+07  0.1397995E+07 -0.1265241E+01  0.2340958E+00  0.1064215E+06  0.2191438E+05 -0.4146410E-05 -0.4768372E-06  0.7483441E-01  0.1850891E-01  0.3482984E-03 -0.5722046E-04  0.6206309E+05  0.1401964E+05 -0.9558719E-01 -0.9936333E-02
  0.1880000E+01  0.5046939E+06  0.9315796E+06 -0.4125155E-04  0.7433078E-04  0.1088244E+00 -0.7040024E-01  0.6006119E-03  0.1955032E-04 -0.1617663E+07  0.1384004E+07 -0.4360503E+00  0.8093554E+00  0.1114097E+06  0.1714258E+05  0.0000000E+00  0.0000000E+00  0.2597241E-02 -0.4959106E-04 -0.5113318E-03  0.1716614E-04  0.6538572E+05  0.1090504E+05  0.1073513E+00  0.7722378E-02
  0.1920000E+01  0.5332522E+06  0.8715589E+06 -0.3151912E-04  0.1078743E-03  0.2118111E+00 -0.5374527E-01 -0.9099643E-03 -0.7567406E-03 -0.1647394E+07  0.1370780E+07 -0.1524649E+01  0.3708425E+00  0.1160323E+06  0.1324998E+05  0.3973643E-05 -0.2384186E-06 -0.1027425E+00 -0.3902435E-02 -0.2264977E-03  0.1049042E-04  0.6846502E+05  0.8378256E+04  0.4748901E-01 -0.7576942E-03
  0.1960000E+01  0.5612007E+06  0.8203441E+06  0.4952605E-04 -0.1527839E-03  0.2912249E+00 -0.1182938E-01  0.4978569E-02  0.1044273E-03 -0.1673001E+07  0.1361252E+07  0.7527916E+00  0.2047009E+01  0.1203146E+06  0.1003636E+05  0.3892548E-05 -0.7152557E-06 -0.1120742E+00 -0.7833481E-02 -0.7901873E-03  0.8583069E-05  0.7132239E+05  0.6295016E+04  0.1497502E+00  0.9055614E-02
  0.2000000E+01  0.5876059E+06  0.7777835E+06 -0.4584203E-05  0.1277815E-04  0.3278503E+00 -0.1028061E-01 -0.2006531E-02 -0.1933575E-03 -0.1695834E+07  0.1354840E+07 -0.5824213E+00 -0.1752058E+01  0.1242349E+06  0.7399213E+04 -0.3814697E-05  0.0000000E+00 -0.1515808E+00 -0.8144379E-02  0.3051758E-03  0.1382828E-04  0.7393841E+05  0.4580291E+04 -0.1596413E+00 -0.2501011E-02
  0.2040000E+01  0.6117966E+06  0.7423745E+06  0.6294411E-04 -0.1899357E-03  0.2065023E+00 -0.7667542E-03  0.4940407E-02  0.8473396E-03 -0.1717630E+07  0.1352697E+07  0.7025532E+00  0.2564957E+01  0.1278401E+06  0.5177149E+04  0.3739899E-05  0.2384186E-06 -0.9981044E-01 -0.3734589E-02  0.1495960E-03 -0.2276897E-04  0.7634555E+05  0.3131365E+04 -0.1720354E-01 -0.1208901E-02
  0.2080000E+01  0.6332169E+06  0.7123933E+06 -0.6661531E-04 -0.1951164E-04  0.2373035E+00 -0.9127617E-02 -0.2479553E-02  0.1177073E-02 -0.1740024E+07  0.1352624E+07  0.4858366E+00 -0.7409511E+00  0.1311314E+06  0.3371553E+04 -0.3667978E-05  0.0000000E+00 -0.1362140E+00 -0.1802921E-02  0.4768372E-04 -0.1335144E-04  0.7854095E+05  0.1950239E+04 -0.3316953E-01 -0.4411340E-02
  0.2120000E+01  0.6519436E+06  0.6853853E+06 -0.3273385E-04  0.1956090E-03  0.1633554E+00  0.9737015E-03  0.4552445E-02  0.4857779E-03 -0.1763840E+07  0.1351109E+07  0.1248135E+01 -0.2043364E+01  0.1341558E+06  0.1931912E+04  0.3598771E-05  0.2384186E-06 -0.1134908E+00  0.4949570E-03 -0.7557420E-03  0.2443790E-04  0.8054527E+05  0.1012748E+04  0.3191030E-01 -0.2150044E-02
  0.2160000E+01  0.6679154E+06  0.6591284E+06  0.7377681E-04 -0.1089451E-03  0.1673098E+00  0.1256026E-02  0.1031734E-01  0.5618203E-04 -0.1788788E+07  0.1346677E+07  0.1474126E+01  0.4908434E+00  0.1368679E+06  0.7415631E+03  0.3532127E-05 -0.1192093E-06 -0.1514293E+00  0.6568730E-03 -0.6852326E-03  0.4924834E-05  0.8233839E+05  0.2466915E+03  0.4230428E-01 -0.3159046E-04
  0.2200000E+01  0.6823666E+06  0.6315427E+06  0.9261167E-04  0.1008251E-03  0.6355979E-01  0.6655574E-02 -0.2441406E-02 -0.7731616E-03 -0.1814174E+07  0.1334363E+07 -0.7807740E+00 -0.1002420E+01  0.1393665E+06 -0.1539523E+03  0.3467906E-05  0.5960464E-07 -0.8775191E-01  0.9617090E-02  0.4959106E-03 -0.6049871E-05  0.8398797E+05 -0.3181309E+03  0.1361049E+00 -0.3784895E-04
  0.2240000E+01  0.6955787E+06  0.6035227E+06  0.5583414E-04  0.4455202E-04  0.5182539E-01  0.4946232E-02 -0.4158701E-02  0.2110004E-04 -0.1838556E+07  0.1316131E+07  0.8746684E+00 -0.4363802E+00  0.1416289E+06 -0.8308980E+03  0.0000000E+00 -0.8940697E-07 -0.1294272E+00 -0.6222725E-03 -0.9536743E-04 -0.6735325E-05  0.8548402E+05 -0.7340635E+03 -0.5135536E-01  0.6353855E-04
  0.2280000E+01  0.7084229E+06  0.5743472E+06 -0.7035198E-04 -0.4529442E-04  0.6553248E-01  0.4211903E-02  0.4343401E-02  0.1663566E-03 -0.1860790E+07  0.1291343E+07  0.3604747E+00 -0.8750554E+00  0.1437132E+06 -0.1366586E+04 -0.1003868E-04 -0.3725290E-08 -0.1695867E+00 -0.6566048E-03  0.5822433E-03  0.2205372E-05  0.8686859E+05 -0.1056670E+04 -0.2527337E+00  0.4988909E-04
  0.2320000E+01  0.7212873E+06  0.5443211E+06  0.5103914E-04 -0.8722986E-04  0.1541401E+00  0.1059055E-01 -0.6965111E-02  0.4666448E-03 -0.1880716E+07  0.1260155E+07 -0.1356831E+01  0.7738394E+00  0.1456809E+06 -0.1786385E+04  0.0000000E+00  0.0000000E+00 -0.2738427E+00  0.7138252E-03 -0.2170431E-03 -0.1549721E-05  0.8817674E+05 -0.1307650E+04 -0.1948784E-01 -0.2068877E-03
  0.2360000E+01  0.7340625E+06  0.5150932E+06  0.9708338E-04  0.5272859E-04  0.1856917E+00  0.9393692E-02  0.3795301E-02 -0.5954504E-04 -0.1897708E+07  0.1225342E+07 -0.4906355E+00 -0.8324252E+00  0.1475051E+06 -0.2095733E+04  0.0000000E+00 -0.5960464E-07 -0.2983223E+00  0.1092434E-02 -0.7241460E-03 -0.1430511E-05  0.8939212E+05 -0.1486218E+04 -0.1292471E+00 -0.1491547E-02
  0.2400000E+01  0.7470678E+06  0.4864859E+06  0.5249962E-04  0.3922855E-04  0.2395884E+00  0.7918835E-02  0.1171112E-01  0.1327991E-03 -0.1911543E+07  0.1187298E+07 -0.5949950E+00  0.1856963E+00  0.1492020E+06 -0.2314650E+04  0.0000000E+00  0.0000000E+00 -0.2760060E+00  0.9088516E-03  0.2098083E-03  0.3099442E-05  0.9052297E+05 -0.1614231E+04  0.5950927E-01 -0.7230043E-03
  0.2440000E+01  0.7603499E+06  0.4587930E+06 -0.8436537E-04 -0.9488671E-04  0.2153490E+00 -0.1859665E-03  0.1876081E-04 -0.1090765E-03 -0.1922698E+07  0.1147205E+07 -0.2160487E+00 -0.2299373E+00  0.1508053E+06 -0.2462689E+04 -0.6253602E-05  0.1192093E-06 -0.3250622E+00  0.4649162E-03 -0.6128530E-03  0.3933907E-05  0.9158361E+05 -0.1707818E+04 -0.1091254E-01 -0.3212333E-02
  0.2480000E+01  0.7736162E+06  0.4328494E+06  0.4585919E-05  0.7612076E-04  0.4230622E-01  0.2501011E-02  0.2817954E-02  0.4613400E-04 -0.1930967E+07  0.1106593E+07  0.3969285E-02  0.5034455E+00  0.1522567E+06 -0.2522554E+04  0.0000000E+00 -0.5960464E-07 -0.2382832E+00  0.9765625E-03 -0.2214985E-03  0.6675720E-05  0.9253878E+05 -0.1740900E+04  0.7473730E-01 -0.4416823E-02
  0.2520000E+01  0.7869312E+06  0.4079171E+06 -0.5778307E-04  0.6420485E-04  0.1488580E+00  0.4930496E-03 -0.3124419E-02 -0.1245737E-03 -0.1937082E+07  0.1065244E+07 -0.1262404E+01 -0.1720902E+00  0.1536079E+06 -0.2533688E+04  0.0000000E+00  0.5960464E-07 -0.2154153E+00  0.1773834E-02  0.1816522E-04 -0.4112720E-05  0.9342686E+05 -0.1741340E+04 -0.9994507E-01  0.1492918E-02
  0.2560000E+01  0.8002149E+06  0.3849720E+06 -0.3478916E-03  0.9917406E-05  0.2318621E+00 -0.1948357E-02  0.1972914E-02  0.1307130E-03 -0.1941245E+07  0.1026134E+07  0.5493432E+00  0.5665758E+00  0.1548506E+06 -0.2508463E+04  0.5960464E-05  0.0000000E+00 -0.3645897E+00  0.2379417E-02  0.7152557E-04 -0.1192093E-05  0.9424591E+05 -0.1717800E+04 -0.3271699E-01  0.9101033E-03
  0.2600000E+01  0.8133155E+06  0.3639316E+06 -0.5111479E-04 -0.6689702E-04  0.1270001E+00 -0.2002716E-03 -0.9701069E-02  0.9524822E-04 -0.1943473E+07  0.9895024E+06 -0.1704458E+00  0.5048630E-01  0.1560019E+06 -0.2459896E+04  0.5868765E-05 -0.1192093E-06 -0.3165847E+00  0.3127098E-02  0.5105826E-03 -0.1549721E-05  0.9500513E+05 -0.1673964E+04 -0.6209740E-01  0.4414320E-03
  0.2640000E+01  0.8261997E+06  0.3451077E+06  0.4002623E-04 -0.2098172E-04  0.1345085E+00 -0.1375675E-02 -0.3375429E-02 -0.9983778E-04 -0.1944389E+07  0.9559841E+06  0.1126925E+01  0.1210989E+01  0.1570691E+06 -0.2369846E+04 -0.5779844E-05  0.5960464E-07 -0.3055919E+00  0.2064228E-02 -0.3005519E-03  0.1370907E-05  0.9571005E+05 -0.1600427E+04  0.1324105E+00 -0.7598400E-03
  0.2680000E+01  0.8387044E+06  0.3279574E+06 -0.1107761E-04  0.8730856E-04  0.1551842E+00 -0.9689331E-03  0.2066769E-02  0.2330542E-04 -0.1944311E+07  0.9251876E+06 -0.6805619E+00  0.5733799E+00  0.1580509E+06 -0.2293367E+04  0.0000000E+00 -0.5960464E-07 -0.2656396E+00  0.2348900E-02  0.5238092E-03 -0.3695488E-05  0.9635896E+05 -0.1535425E+04 -0.7424425E-01  0.4038215E-03
  0.2720000E+01  0.8505580E+06  0.3135749E+06  0.6838702E-04 -0.5129982E-04  0.2297345E+00 -0.1044273E-02 -0.6097906E-02 -0.2505183E-03 -0.1943944E+07  0.8984949E+06  0.2465444E+01  0.2545818E+00  0.1589745E+06 -0.2176651E+04 -0.5609849E-05  0.1192093E-06 -0.2991171E+00  0.2556324E-02  0.8975758E-04 -0.3218651E-05  0.9696592E+05 -0.1440976E+04 -0.1220310E+00  0.1211166E-03
  0.2760000E+01  0.8617651E+06  0.3010229E+06  0.1012088E-03 -0.9116351E-04  0.2044235E+00  0.4399776E-02 -0.3494042E-02 -0.7146597E-04 -0.1943743E+07  0.8749921E+06  0.1361905E+01 -0.4433489E+00  0.1598514E+06 -0.2040488E+04 -0.1105709E-04 -0.1192093E-06 -0.2731102E+00  0.1791954E-02  0.4035839E-03 -0.2920628E-05  0.9754557E+05 -0.1336320E+04  0.2265598E-01  0.9415746E-03
  0.2800000E+01  0.8722800E+06  0.2896878E+06 -0.3308640E-04 -0.1557032E-03  0.2769688E+00  0.4640579E-02 -0.5640302E-02  0.1564622E-03 -0.1943935E+07  0.8533543E+06  0.3649263E+01  0.1347440E+01  0.1606860E+06 -0.1900710E+04 -0.5449568E-05  0.5960464E-07 -0.3233991E+00  0.1533508E-02  0.1035418E-03  0.5066395E-05  0.9809603E+05 -0.1239224E+04 -0.1538413E-01  0.1558065E-03
  0.2840000E+01  0.8819781E+06  0.2793407E+06 -0.1287203E-03 -0.3327892E-04  0.3194030E+00  0.9892702E-02  0.5211629E-03 -0.5859137E-04 -0.1944486E+07  0.8330276E+06 -0.1060745E+01  0.5733222E+00  0.1614571E+06 -0.1775311E+04  0.1611844E-04  0.5960464E-07 -0.2289248E+00  0.9717941E-03 -0.3922154E-03 -0.6258488E-05  0.9860427E+05 -0.1161699E+04 -0.4959106E-02  0.1385510E-02
  0.2880000E+01  0.8910588E+06  0.2695956E+06 -0.8663029E-04  0.8893963E-04  0.2645281E+00  0.9222031E-02  0.8985731E-02 -0.1702309E-03 -0.1945614E+07  0.8132589E+06  0.1508849E+01  0.7367621E+00  0.1622220E+06 -0.1657204E+04  0.0000000E+00  0.0000000E+00 -0.1943376E+00  0.1041412E-02 -0.1271566E-02  0.5960464E-07  0.9911171E+05 -0.1088355E+04 -0.1184728E+00 -0.2520680E-03
  0.2920000E+01  0.8994572E+06  0.2588780E+06 -0.7711347E-04 -0.4647354E-04  0.3286283E+00  0.6042480E-02 -0.2889764E-02  0.8136034E-05 -0.1946365E+07  0.7901216E+06 -0.2238587E+01 -0.1179022E+00  0.1628937E+06 -0.1540255E+04  0.5225613E-05  0.5960464E-07 -0.2425938E+00  0.1552820E-02  0.1045123E-04  0.4589558E-05  0.9955416E+05 -0.1015929E+04  0.1346327E+00 -0.2272725E-03
  0.2960000E+01  0.9074811E+06  0.2492202E+06  0.1074192E-03 -0.1149932E-05  0.4160700E+00  0.8124590E-02  0.2525948E-02 -0.1218915E-04 -0.1947422E+07  0.7671589E+06 -0.1080065E+01  0.3135635E+00  0.1635529E+06 -0.1401562E+04  0.5154996E-05  0.8940697E-07 -0.2765552E+00  0.2129078E-02  0.1077394E-02  0.1966953E-05  0.9998850E+05 -0.9288098E+03  0.1479484E-02  0.1010299E-03
  0.3000000E+01  0.9151755E+06  0.2389228E+06  0.1231065E-04 -0.6563873E-06  0.5477702E+00  0.7279396E-02 -0.1251221E-02  0.4261732E-05 -0.1947727E+07  0.7432570E+06  0.1194077E+01  0.6432218E-01  0.1641867E+06 -0.1303444E+04  0.1017253E-04 -0.2980232E-07 -0.3619792E+00  0.1788616E-02 -0.4425049E-03 -0.3278255E-06  0.1004095E+06 -0.8648196E+03 -0.5544027E-02  0.6720424E-03
  0.3040000E+01  0.9227908E+06  0.2289114E+06 -0.2755738E-04 -0.9070203E-04  0.6057739E+00  0.6716251E-02 -0.1850128E-01  0.1582205E-03 -0.1947838E+07  0.7187383E+06  0.9181198E+00 -0.3591015E+00  0.1647833E+06 -0.1198928E+04 -0.5019338E-05  0.0000000E+00 -0.3720334E+00  0.1840830E-02 -0.5471079E-03 -0.1907349E-05  0.1008026E+06 -0.7932717E+03 -0.1015613E+00  0.8146763E-03
  0.3080000E+01  0.9301201E+06  0.2188008E+06  0.2754102E-03  0.4863380E-04  0.5874436E+00  0.6290674E-02  0.2719830E-02  0.1104176E-03 -0.1947060E+07  0.6931672E+06 -0.2335903E+01 -0.1170902E+00  0.1653500E+06 -0.1099853E+04  0.4954152E-05  0.5960464E-07 -0.3709669E+00  0.9689331E-03  0.2625701E-03  0.2652407E-05  0.1011774E+06 -0.7243809E+03  0.7233062E-01  0.8391440E-03
  0.3120000E+01  0.9374201E+06  0.2092643E+06 -0.1140307E-03  0.5259444E-06  0.5812425E+00  0.7421494E-02 -0.8543944E-02  0.6014109E-04 -0.1945898E+07  0.6682105E+06 -0.2239556E+01 -0.9748235E-01  0.1659112E+06 -0.1001930E+04  0.4890638E-05 -0.2980232E-07 -0.3533779E+00  0.9360313E-03  0.1565004E-03 -0.1490116E-06  0.1015481E+06 -0.6539814E+03  0.4371252E-01  0.6502271E-03