VARIABLES="X" "Y" "Z" "NX" "NY" "NZ" "A"
 ZONE N=        8304 , E=        2076  , F=FEPOINT,ET=QUADRILATERAL
  -0.2652000E-01   0.9914000E-01  -0.2130500E+00   0.0000000E+00   0.0000000E+00   0.0000000E+00   0.0000000E+00
  -0.2652000E-01   0.1000000E+00  -0.2000000E+00   0.0000000E+00   0.0000000E+00   0.0000000E+00   0.0000000E+00
  -0.1326000E-01   0.9914000E-01  -0.2130500E+00   0.0000000E+00   0.0000000E+00   0.0000000E+00   0.0000000E+00
  -0.1326000E-01   0.1000000E+00  -0.2000000E+00   0.0000000E+00   0.0000000E+00   0.0000000E+00   0.0000000E+00
  -0.2652000E-01   0.9659000E-01  -0.2258800E+00   0.0000000E+00   0.0000000E+00   0.0000000E+00   0.0000000E+00
  -0.2652000E-01   0.9914000E-01  -0.2130500E+00   0.0000000E+00   0.0000000E+00   0.0000000E+00   0.0000000E+00
  -0.1326000E-01   0.9659000E-01  -0.2258800E+00   0.0000000E+00   0.0000000E+00   0.0000000E+00   0.0000000E+00
  -0.1326000E-01   0.9914000E-01  -0.2130500E+00   0.0000000E+00   0.0000000E+00   0.0000000E+00   0.0000000E+00
  -0.2652000E-01   0.9239000E-01  -0.2382700E+00   0.0000000E+00   0.0000000E+00   0.0000000E+00   0.0000000E+00
  -0.2652000E-01   0.9659000E-01  -0.2258800E+00   0.0000000E+00   0.0000000E+00   0.0000000E+00   0.0000000E+00
  -0.1326000E-01   0.9239000E-01  -0.2382700E+00   0.0000000E+00   0.0000000E+00   0.0000000E+00   0.0000000E+00
  -0.1326000E-01   0.9659000E-01  -0.2258800E+00   0.0000000E+00   0.0000000E+00   0.0000000E+00   0.0000000E+00
  -0.2652000E-01   0.8660000E-01  -0.2500000E+00   0.0000000E+00   0.0000000E+00   0.0000000E+00   0.0000000E+00
  -0.2652000E-01   0.9239000E-01  -0.2382700E+00   0.0000000E+00   0.0000000E+00   0.0000000E+00   0.0000000E+00
  -0.1326000E-01   0.8660000E-01  -0.2500000E+00   0.0000000E+00   0.0000000E+00   0.0000000E+00   0.0000000E+00
  -0.1326000E-01   0.9239000E-01  -0.2382700E+00   0.0000000E+00   0.0000000E+00   0.0000000E+00   0.0000000E+00
  -0.2652000E-01   0.7934000E-01  -0.2608800E+00   0.0000000E+00   0.0000000E+00   0.0000000E+00   0.0000000E+00
  -0.2652000E-01   0.8660000E-01  -0.2500000E+00   0.0000000E+00   0.0000000E+00   0.0000000E+00   0.0000000E+00
  -0.1326000E-01   0.7934000E-01  -0.2608800E+00   0.0000000E+00   0.0000000E+00   0.0000000E+00   0.0000000E+00
  -0.1326000E-01   0.8660000E-01  -0.2500000E+00   0.0000000E+00   0.0000000E+00   0.0000000E+00   0.0000000E+00
  -0.2652000E-01   0.7071000E-01  -0.2707100E+00   0.0000000E+00   0.0000000E+00   0.0000000E+00   0.0000000E+00
  -0.2652000E-01   0.7934000E-01  -0.2608800E+00   0.0000000E+00   0.0000000E+00   0.0000000E+00   0.0000000E+00
  -0.1326000E-01   0.7071000E-01  -0.2707100E+00   0.0000000E+00   0.0000000E+00   0.0000000E+00   0.0000000E+00
  -0.1326000E-01   0.7934000E-01  -0.2608800E+00   0.0000000E+00   0.0000000E+00   0.0000000E+00   0.0000000E+00
  -0.2652000E-01   0.6088000E-01  -0.2793400E+00   0.0000000E+00   0.0000000E+00   0.0000000E+00   0.0000000E+00
  -0.2652000E-01   0.7071000E-01  -0.2707100E+00   0.0000000E+00   0.0000000E+00   0.0000000E+00   0.0000000E+00
  -0.1326000E-01   0.6088000E-01  -0.2793400E+00   0.0000000E+00   0.0000000E+00   0.0000000E+00   0.0000000E+00
  -0.1326000E-01   0.7071000E-01  -0.2707100E+00   0.0000000E+00   0.0000000E+00   0.0000000E+00   0.0000000E+00
  -0.2652000E-01   0.5000000E-01  -0.2866000E+00   0.0000000E+00   0.0000000E+00   0.0000000E+00   0.0000000E+00
  -0.2652000E-01   0.6088000E-01  -0.2793400E+00   0.0000000E+00   0.0000000E+00   0.0000000E+00   0.0000000E+00
  -0.1326000E-01   0.5000000E-01  -0.2866000E+00   0.0000000E+00   0.0000000E+00   0.0000000E+00   0.0000000E+00
  -0.1326000E-01   0.6088000E-01  -0.2793400E+00   0.0000000E+00   0.0000000E+00   0.0000000E+00   0.0000000E+00
  -0.2652000E-01   0.3827000E-01  -0.2923900E+00   0.0000000E+00   0.0000000E+00   0.0000000E+00   0.0000000E+00
  -0.2652000E-01   0.5000000E-01  -0.2866000E+00   0.0000000E+00   0.0000000E+00   0.0000000E+00   0.0000000E+00
  -0.1326000E-01   0.3827000E-01  -0.2923900E+00   0.0000000E+00   0.0000000E+00   0.0000000E+00   0.0000000E+00
  -0.1326000E-01   0.5000000E-01  -0.2866000E+00   0.0000000E+00   0.0000000E+00   0.0000000E+00   0.0000000E+00
  -0.2652000E-01   0.2588000E-01  -0.2965900E+00   0.0000000E+00   0.0000000E+00   0.0000000E+00   0.0000000E+00
  -0.2652000E-01   0.3827000E-01  -0.2923900E+00   0.0000000E+00   0.0000000E+00   0.0000000E+00   0.0000000E+00
  -0.1326000E-01   0.2588000E-01  -0.2965900E+00   0.0000000E+00   0.0000000E+00   0.0000000E+00   0.0000000E+00
  -0.1326000E-01   0.3827000E-01  -0.2923900E+00   0.0000000E+00   0.0000000E+00   0.0000000E+00   0.0000000E+00
  -0.2652000E-01   0.1305000E-01  -0.2991400E+00   0.0000000E+00   0.0000000E+00   0.0000000E+00   0.0000000E+00
  -0.2652000E-01   0.2588000E-01  -0.2965900E+00   0.0000000E+00   0.0000000E+00   0.0000000E+00   0.0000000E+00
  -0.1326000E-01   0.1305000E-01  -0.2991400E+00   0.0000000E+00   0.0000000E+00   0.0000000E+00   0.0000000E+00
  -0.1326000E-01   0.2588000E-01  -0.2965900E+00   0.0000000E+00   0.0000000E+00   0.0000000E+00   0.0000000E+00
  -0.2652000E-01   0.0000000E+00  -0.3000000E+00   0.0000000E+00   0.0000000E+00   0.0000000E+00   0.0000000E+00
  -0.2652000E-01   0.1305000E-01  -0.2991400E+00   0.0000000E+00   0.0000000E+00   0.0000000E+00   0.0000000E+00
  -0.1326000E-01   0.0000000E+00  -0.3000000E+00   0.0000000E+00   0.0000000E+00   0.0000000E+00   0.0000000E+00
  -0.1326000E-01   0.1305000E-01  -0.2991400E+00   0.0000000E+00   0.0000000E+00   0.0000000E+00   0.0000000E+00
  -0.2652000E-01   0.1305000E-01  -0.1008600E+00   0.0000000E+00   0.0000000E+00   0.0000000E+00   0.0000000E+00
  -0.2652000E-01   0.0000000E+00  -0.1000000E+00   0.0000000E+00   0.0000000E+00   0.0000000E+00   0.0000000E+00
  -0.1326000E-01   0.1305000E-01  -0.1008600E+00   0.0000000E+00   0.0000000E+00   0.0000000E+00   0.0000000E+00
  -0.1326000E-01   0.0000000E+00  -0.1000000E+00   0.0000000E+00   0.0000000E+00   0.0000000E+00   0.0000000E+00
  -0.2652000E-01   0.2588000E-01  -0.1034100E+00   0.0000000E+00   0.0000000E+00   0.0000000E+00   0.0000000E+00
  -0.2652000E-01   0.1305000E-01  -0.1008600E+00   0.0000000E+00   0.0000000E+00   0.0000000E+00   0.0000000E+00
  -0.1326000E-01   0.2588000E-01  -0.1034100E+00   0.0000000E+00   0.0000000E+00   0.0000000E+00   0.0000000E+00
  -0.1326000E-01   0.1305000E-01  -0.1008600E+00   0.0000000E+00   0.0000000E+00   0.0000000E+00   0.0000000E+00
  -0.2652000E-01   0.3827000E-01  -0.1076100E+00   0.0000000E+00   0.0000000E+00   0.0000000E+00   0.0000000E+00
  -0.2652000E-01   0.2588000E-01  -0.1034100E+00   0.0000000E+00   0.0000000E+00   0.0000000E+00   0.0000000E+00
  -0.1326000E-01   0.3827000E-01  -0.1076100E+00   0.0000000E+00   0.0000000E+00   0.0000000E+00   0.0000000E+00
  -0.1326000E-01   0.2588000E-01  -0.1034100E+00   0.0000000E+00   0.0000000E+00   0.0000000E+00   0.0000000E+00
  -0.2652000E-01   0.5000000E-01  -0.1134000E+00   0.0000000E+00   0.0000000E+00   0.0000000E+00   0.0000000E+00
  -0.2652000E-01   0.3827000E-01  -0.1076100E+00   0.0000000E+00   0.0000000E+00   0.0000000E+00   0.0000000E+00
  -0.1326000E-01   0.5000000E-01  -0.1134000E+00   0.0000000E+00   0.0000000E+00   0.0000000E+00   0.0000000E+00
  -0.1326000E-01   0.3827000E-01  -0.1076100E+00   0.0000000E+00   0.0000000E+00   0.0000000E+00   0.0000000E+00
  -0.2652000E-01   0.6088000E-01  -0.1206600E+00   0.0000000E+00   0.0000000E+00   0.0000000E+00   0.0000000E+00
  -0.2652000E-01   0.5000000E-01  -0.1134000E+00   0.0000000E+00   0.0000000E+00   0.0000000E+00   0.0000000E+00
  -0.1326000E-01   0.6088000E-01  -0.1206600E+00   0.0000000E+00   0.0000000E+00   0.0000000E+00   0.0000000E+00
  -0.1326000E-01   0.5000000E-01  -0.1134000E+00   0.0000000E+00   0.0000000E+00   0.0000000E+00   0.0000000E+00
  -0.2652000E-01   0.7071000E-01  -0.1292900E+00   0.0000000E+00   0.0000000E+00   0.0000000E+00   0.0000000E+00
  -0.2652000E-01   0.6088000E-01  -0.1206600E+00   0.0000000E+00   0.0000000E+00   0.0000000E+00   0.0000000E+00
  -0.1326000E-01   0.7071000E-01  -0.1292900E+00   0.0000000E+00   0.0000000E+00   0.0000000E+00   0.0000000E+00
  -0.1326000E-01   0.6088000E-01  -0.1206600E+00   0.0000000E+00   0.0000000E+00   0.0000000E+00   0.0000000E+00
  -0.2652000E-01   0.7934000E-01  -0.1391200E+00   0.0000000E+00   0.0000000E+00   0.0000000E+00   0.0000000E+00
  -0.2652000E-01   0.7071000E-01  -0.1292900E+00   0.0000000E+00   0.0000000E+00   0.0000000E+00   0.0000000E+00
  -0.1326000E-01   0.7934000E-01  -0.1391200E+00   0.0000000E+00   0.0000000E+00   0.0000000E+00   0.0000000E+00
  -0.1326000E-01   0.7071000E-01  -0.1292900E+00   0.0000000E+00   0.0000000E+00   0.0000000E+00   0.0000000E+00
  -0.2652000E-01   0.8660000E-01  -0.1500000E+00   0.0000000E+00   0.0000000E+00   0.0000000E+00   0.0000000E+00
  -0.2652000E-01   0.7934000E-01  -0.1391200E+00   0.0000000E+00   0.0000000E+00   0.0000000E+00   0.0000000E+00
  -0.1326000E-01   0.8660000E-01  -0.1500000E+00   0.0000000E+00   0.0000000E+00   0.0000000E+00   0.0000000E+00
  -0.1326000E-01   0.7934000E-01  -0.1391200E+00   0.0000000E+00   0.0000000E+00   0.0000000E+00   0.0000000E+00
  -0.2652000E-01   0.9239000E-01  -0.1617300E+00   0.0000000E+00   0.0000000E+00   0.0000000E+00   0.0000000E+00
  -0.2652000E-01   0.8660000E-01  -0.1500000E+00   0.0000000E+00   0.0000000E+00   0.0000000E+00   0.0000000E+00
  -0.1326000E-01   0.9239000E-01  -0.1617300E+00   0.0000000E+00   0.0000000E+00   0.0000000E+00   0.0000000E+00
  -0.1326000E-01   0.8660000E-01  -0.1500000E+00   0.0000000E+00   0.0000000E+00   0.0000000E+00   0.0000000E+00
  -0.2652000E-01   0.9659000E-01  -0.1741200E+00   0.0000000E+00   0.0000000E+00   0.0000000E+00   0.0000000E+00
  -0.2652000E-01   0.9239000E-01  -0.1617300E+00   0.0000000E+00   0.0000000E+00   0.0000000E+00   0.0000000E+00
  -0.1326000E-01   0.9659000E-01  -0.1741200E+00   0.0000000E+00   0.0000000E+00   0.0000000E+00   0.0000000E+00
  -0.1326000E-01   0.9239000E-01  -0.1617300E+00   0.0000000E+00   0.0000000E+00   0.0000000E+00   0.0000000E+00
  -0.2652000E-01   0.9914000E-01  -0.1869500E+00   0.0000000E+00   0.0000000E+00   0.0000000E+00   0.0000000E+00
  -0.2652000E-01   0.9659000E-01  -0.1741200E+00   0.0000000E+00   0.0000000E+00   0.0000000E+00   0.0000000E+00
  -0.1326000E-01   0.9914000E-01  -0.1869500E+00   0.0000000E+00   0.0000000E+00   0.0000000E+00   0.0000000E+00
  -0.1326000E-01   0.9659000E-01  -0.1741200E+00   0.0000000E+00   0.0000000E+00   0.0000000E+00   0.0000000E+00
  -0.2652000E-01   0.1000000E+00  -0.2000000E+00   0.0000000E+00   0.0000000E+00   0.0000000E+00   0.0000000E+00
  -0.2652000E-01   0.9914000E-01  -0.1869500E+00   0.0000000E+00   0.0000000E+00   0.0000000E+00   0.0000000E+00
  -0.1326000E-01   0.1000000E+00  -0.2000000E+00   0.0000000E+00   0.0000000E+00   0.0000000E+00   0.0000000E+00
  -0.1326000E-01   0.9914000E-01  -0.1869500E+00   0.0000000E+00   0.0000000E+00   0.0000000E+00   0.0000000E+00
  -0.3978000E-01   0.9914000E-01  -0.2130500E+00   0.0000000E+00   0.0000000E+00   0.0000000E+00   0.0000000E+00
  -0.3978000E-01   0.1000000E+00  -0.2000000E+00   0.0000000E+00   0.0000000E+00   0.0000000E+00   0.0000000E+00
  -0.2652000E-01   0.9914000E-01  -0.2130500E+00   0.0000000E+00   0.0000000E+00   0.0000000E+00   0.0000000E+00
  -0.2652000E-01   0.1000000E+00  -0.2000000E+00   0.0000000E+00   0.0000000E+00   0.0000000E+00   0.0000000E+00
  -0.3978000E-01   0.9659000E-01  -0.2258800E+00   0.0000000E+00   0.0000000E+00   0.0000000E+00   0.0000000E+00
  -0.3978000E-01   0.9914000E-01  -0.2130500E+00   0.0000000E+00   0.0000000E+00   0.0000000E+00   0.0000000E+00
  -0.2652000E-01   0.9659000E-01  -0.2258800E+00   0.0000000E+00   0.0000000E+00   0.0000000E+00   0.0000000E+00
  -0.2652000E-01   0.9914000E-01  -0.2130500E+00   0.0000000E+00   0.0000000E+00   0.0000000E+00   0.0000000E+00
  -0.3978000E-01   0.9239000E-01  -0.2382700E+00   0.0000000E+00   0.0000000E+00   0.0000000E+00   0.0000000E+00
  -0.3978000E-01   0.9659000E-01  -0.2258800E+00   0.0000000E+00   0.0000000E+00   0.0000000E+00   0.0000000E+00
  -0.2652000E-01   0.9239000E-01  -0.2382700E+00   0.0000000E+00   0.0000000E+00   0.0000000E+00   0.0000000E+00
  -0.2652000E-01   0.9659000E-01  -0.2258800E+00   0.0000000E+00   0.0000000E+00   0.0000000E+00   0.0000000E+00
  -0.3978000E-01   0.8660000E-01  -0.2500000E+00   0.0000000E+00   0.0000000E+00   0.0000000E+00   0.0000000E+00
  -0.3978000E-01   0.9239000E-01  -0.2382700E+00   0.0000000E+00   0.0000000E+00   0.0000000E+00   0.0000000E+00
  -0.2652000E-01   0.8660000E-01  -0.2500000E+00   0.0000000E+00   0.0000000E+00   0.0000000E+00   0.0000000E+00
  -0.2652000E-01   0.9239000E-01  -0.2382700E+00   0.0000000E+00   0.0000000E+00   0.0000000E+00   0.0000000E+00
  -0.3978000E-01   0.7934000E-01  -0.2608800E+00   0.0000000E+00   0.0000000E+00   0.0000000E+00   0.0000000E+00
  -0.3978000E-01   0.8660000E-01  -0.2500000E+00   0.0000000E+00   0.0000000E+00   0.0000000E+00   0.0000000E+00
  -0.2652000E-01   0.7934000E-01  -0.2608800E+00   0.0000000E+00   0.0000000E+00   0.0000000E+00   0.0000000E+00
  -0.2652000E-01   0.8660000E-01  -0.2500000E+00   0.0000000E+00   0.0000000E+00   0.0000000E+00   0.0000000E+00
  -0.3978000E-01   0.7071000E-01  -0.2707100E+00   0.0000000E+00   0.0000000E+00   0.0000000E+00   0.0000000E+00
  -0.3978000E-01   0.7934000E-01  -0.2608800E+00   0.0000000E+00   0.0000000E+00   0.0000000E+00   0.0000000E+00
  -0.2652000E-01   0.7071000E-01  -0.2707100E+00   0.0000000E+00   0.0000000E+00   0.0000000E+00   0.0000000E+00
  -0.2652000E-01   0.7934000E-01  -0.2608800E+00   0.0000000E+00   0.0000000E+00   0.0000000E+00   0.0000000E+00
  -0.3978000E-01   0.6088000E-01  -0.2793400E+00   0.0000000E+00   0.0000000E+00   0.0000000E+00   0.0000000E+00
  -0.3978000E-01   0.7071000E-01  -0.2707100E+00   0.0000000E+00   0.0000000E+00   0.0000000E+00   0.0000000E+00
  -0.2652000E-01   0.6088000E-01  -0.2793400E+00   0.0000000E+00   0.0000000E+00   0.0000000E+00   0.0000000E+00
  -0.2652000E-01   0.7071000E-01  -0.2707100E+00   0.0000000E+00   0.0000000E+00   0.0000000E+00   0.0000000E+00
  -0.3978000E-01   0.5000000E-01  -0.2866000E+00   0.0000000E+00   0.0000000E+00   0.0000000E+00   0.0000000E+00
  -0.3978000E-01   0.6088000E-01  -0.2793400E+00   0.0000000E+00   0.0000000E+00   0.0000000E+00   0.0000000E+00
  -0.2652000E-01   0.5000000E-01  -0.2866000E+00   0.0000000E+00   0.0000000E+00   0.0000000E+00   0.0000000E+00
  -0.2652000E-01   0.6088000E-01  -0.2793400E+00   0.0000000E+00   0.0000000E+00   0.0000000E+00   0.0000000E+00
  -0.3978000E-01   0.3827000E-01  -0.2923900E+00   0.0000000E+00   0.0000000E+00   0.0000000E+00   0.0000000E+00
  -0.3978000E-01   0.5000000E-01  -0.2866000E+00   0.0000000E+00   0.0000000E+00   0.0000000E+00   0.0000000E+00
  -0.2652000E-01   0.3827000E-01  -0.2923900E+00   0.0000000E+00   0.0000000E+00   0.0000000E+00   0.0000000E+00
  -0.2652000E-01   0.5000000E-01  -0.2866000E+00   0.0000000E+00   0.0000000E+00   0.0000000E+00   0.0000000E+00
  -0.3978000E-01   0.2588000E-01  -0.2965900E+00   0.0000000E+00   0.0000000E+00   0.0000000E+00   0.0000000E+00
  -0.3978000E-01   0.3827000E-01  -0.2923900E+00   0.0000000E+00   0.0000000E+00   0.0000000E+00   0.0000000E+00
  -0.2652000E-01   0.2588000E-01  -0.2965900E+00   0.0000000E+00   0.0000000E+00   0.0000000E+00   0.0000000E+00
  -0.2652000E-01   0.3827000E-01  -0.2923900E+00   0.0000000E+00   0.0000000E+00   0.0000000E+00   0.0000000E+00
  -0.3978000E-01   0.1305000E-01  -0.2991400E+00   0.0000000E+00   0.0000000E+00   0.0000000E+00   0.0000000E+00
  -0.3978000E-01   0.2588000E-01  -0.2965900E+00   0.0000000E+00   0.0000000E+00   0.0000000E+00   0.0000000E+00
  -0.2652000E-01   0.1305000E-01  -0.2991400E+00   0.0000000E+00   0.0000000E+00   0.0000000E+00   0.0000000E+00
  -0.2652000E-01   0.2588000E-01  -0.2965900E+00   0.0000000E+00   0.0000000E+00   0.0000000E+00   0.0000000E+00
  -0.3978000E-01   0.0000000E+00  -0.3000000E+00   0.0000000E+00   0.0000000E+00   0.0000000E+00   0.0000000E+00
  -0.3978000E-01   0.1305000E-01  -0.2991400E+00   0.0000000E+00   0.0000000E+00   0.0000000E+00   0.0000000E+00
  -0.2652000E-01   0.0000000E+00  -0.3000000E+00   0.0000000E+00   0.0000000E+00   0.0000000E+00   0.0000000E+00
  -0.2652000E-01   0.1305000E-01  -0.2991400E+00   0.0000000E+00   0.0000000E+00   0.0000000E+00   0.0000000E+00
  -0.3978000E-01   0.1305000E-01  -0.1008600E+00   0.0000000E+00   0.0000000E+00   0.0000000E+00   0.0000000E+00
  -0.3978000E-01   0.0000000E+00  -0.1000000E+00   0.0000000E+00   0.0000000E+00   0.0000000E+00   0.0000000E+00
  -0.2652000E-01   0.1305000E-01  -0.1008600E+00   0.0000000E+00   0.0000000E+00   0.0000000E+00   0.0000000E+00
  -0.2652000E-01   0.0000000E+00  -0.1000000E+00   0.0000000E+00   0.0000000E+00   0.0000000E+00   0.0000000E+00
  -0.3978000E-01   0.2588000E-01  -0.1034100E+00   0.0000000E+00   0.0000000E+00   0.0000000E+00   0.0000000E+00
  -0.3978000E-01   0.1305000E-01  -0.1008600E+00   0.0000000E+00   0.0000000E+00   0.0000000E+00   0.0000000E+00
  -0.2652000E-01   0.2588000E-01  -0.1034100E+00   0.0000000E+00   0.0000000E+00   0.0000000E+00   0.0000000E+00
  -0.2652000E-01   0.1305000E-01  -0.1008600E+00   0.0000000E+00   0.0000000E+00   0.0000000E+00   0.0000000E+00
  -0.3978000E-01   0.3827000E-01  -0.1076100E+00   0.0000000E+00   0.0000000E+00   0.0000000E+00   0.0000000E+00
  -0.3978000E-01   0.2588000E-01  -0.1034100E+00   0.0000000E+00   0.0000000E+00   0.0000000E+00   0.0000000E+00
  -0.2652000E-01   0.3827000E-01  -0.1076100E+00   0.0000000E+00   0.0000000E+00   0.0000000E+00   0.0000000E+00
  -0.2652000E-01   0.2588000E-01  -0.1034100E+00   0.0000000E+00   0.0000000E+00   0.0000000E+00   0.0000000E+00
  -0.3978000E-01   0.5000000E-01  -0.1134000E+00   0.0000000E+00   0.0000000E+00   0.0000000E+00   0.0000000E+00
  -0.3978000E-01   0.3827000E-01  -0.1076100E+00   0.0000000E+00   0.0000000E+00   0.0000000E+00   0.0000000E+00
  -0.2652000E-01   0.5000000E-01  -0.1134000E+00   0.0000000E+00   0.0000000E+00   0.0000000E+00   0.0000000E+00
  -0.2652000E-01   0.3827000E-01  -0.1076100E+00   0.0000000E+00   0.0000000E+00   0.0000000E+00   0.0000000E+00
  -0.3978000E-01   0.6088000E-01  -0.1206600E+00   0.0000000E+00   0.0000000E+00   0.0000000E+00   0.0000000E+00
  -0.3978000E-01   0.5000000E-01  -0.1134000E+00   0.0000000E+00   0.0000000E+00   0.0000000E+00   0.0000000E+00
  -0.2652000E-01   0.6088000E-01  -0.1206600E+00   0.0000000E+00   0.0000000E+00   0.0000000E+00   0.0000000E+00
  -0.2652000E-01   0.5000000E-01  -0.1134000E+00   0.0000000E+00   0.0000000E+00   0.0000000E+00   0.0000000E+00
  -0.3978000E-01   0.7071000E-01  -0.1292900E+00   0.0000000E+00   0.0000000E+00   0.0000000E+00   0.0000000E+00
  -0.3978000E-01   0.6088000E-01  -0.1206600E+00   0.0000000E+00   0.0000000E+00   0.0000000E+00   0.0000000E+00
  -0.2652000E-01   0.7071000E-01  -0.1292900E+00   0.0000000E+00   0.0000000E+00   0.0000000E+00   0.0000000E+00
  -0.2652000E-01   0.6088000E-01  -0.1206600E+00   0.0000000E+00   0.0000000E+00   0.0000000E+00   0.0000000E+00
  -0.3978000E-01   0.7934000E-01  -0.1391200E+00   0.0000000E+00   0.0000000E+00   0.0000000E+00   0.0000000E+00
  -0.3978000E-01   0.7071000E-01  -0.1292900E+00   0.0000000E+00   0.0000000E+00   0.0000000E+00   0.0000000E+00
  -0.2652000E-01   0.7934000E-01  -0.1391200E+00   0.0000000E+00   0.0000000E+00   0.0000000E+00   0.0000000E+00
  -0.2652000E-01   0.7071000E-01  -0.1292900E+00   0.0000000E+00   0.0000000E+00   0.0000000E+00   0.0000000E+00
  -0.3978000E-01   0.8660000E-01  -0.1500000E+00   0.0000000E+00   0.0000000E+00   0.0000000E+00   0.0000000E+00
  -0.3978000E-01   0.7934000E-01  -0.1391200E+00   0.0000000E+00   0.0000000E+00   0.0000000E+00   0.0000000E+00
  -0.2652000E-01   0.8660000E-01  -0.1500000E+00   0.0000000E+00   0.0000000E+00   0.0000000E+00   0.0000000E+00
  -0.2652000E-01   0.7934000E-01  -0.1391200E+00   0.0000000E+00   0.0000000E+00   0.0000000E+00   0.0000000E+00
  -0.3978000E-01   0.9239000E-01  -0.1617300E+00   0.0000000E+00   0.0000000E+00   0.0000000E+00   0.0000000E+00
  -0.3978000E-01   0.8660000E-01  -0.1500000E+00   0.0000000E+00   0.0000000E+00   0.0000000E+00   0.0000000E+00
  -0.2652000E-01   0.9239000E-01  -0.1617300E+00   0.0000000E+00   0.0000000E+00   0.0000000E+00   0.0000000E+00
  -0.2652000E-01   0.8660000E-01  -0.1500000E+00   0.0000000E+00   0.0000000E+00   0.0000000E+00   0.0000000E+00
  -0.3978000E-01   0.9659000E-01  -0.1741200E+00   0.0000000E+00   0.0000000E+00   0.0000000E+00   0.0000000E+00
  -0.3978000E-01   0.9239000E-01  -0.1617300E+00   0.0000000E+00   0.0000000E+00   0.0000000E+00   0.0000000E+00
  -0.2652000E-01   0.9659000E-01  -0.1741200E+00   0.0000000E+00   0.0000000E+00   0.0000000E+00   0.0000000E+00
  -0.2652000E-01   0.9239000E-01  -0.1617300E+00   0.0000000E+00   0.0000000E+00   0.0000000E+00   0.0000000E+00
  -0.3978000E-01   0.9914000E-01  -0.1869500E+00   0.0000000E+00   0.0000000E+00   0.0000000E+00   0.0000000E+00
  -0.3978000E-01   0.9659000E-01  -0.1741200E+00   0.0000000E+00   0.0000000E+00   0.0000000E+00   0.0000000E+00
  -0.2652000E-01   0.9914000E-01  -0.1869500E+00   0.0000000E+00   0.0000000E+00   0.0000000E+00   0.0000000E+00
  -0.2652000E-01   0.9659000E-01  -0.1741200E+00   0.0000000E+00   0.0000000E+00   0.0000000E+00   0.0000000E+00
  -0.3978000E-01   0.1000000E+00  -0.2000000E+00   0.0000000E+00   0.0000000E+00   0.0000000E+00   0.0000000E+00
  -0.3978000E-01   0.9914000E-01  -0.1869500E+00   0.0000000E+00   0.0000000E+00   0.0000000E+00   0.0000000E+00
  -0.2652000E-01   0.1000000E+00  -0.2000000E+00   0.0000000E+00   0.0000000E+00   0.0000000E+00   0.0000000E+00
  -0.2652000E-01   0.9914000E-01  -0.1869500E+00   0.0000000E+00   0.0000000E+00   0.0000000E+00   0.0000000E+00
  -0.5304000E-01   0.9914000E-01  -0.2130500E+00   0.0000000E+00   0.0000000E+00   0.0000000E+00   0.0000000E+00
  -0.5304000E-01   0.1000000E+00  -0.2000000E+00   0.0000000E+00   0.0000000E+00   0.0000000E+00   0.0000000E+00
  -0.3978000E-01   0.9914000E-01  -0.2130500E+00   0.0000000E+00   0.0000000E+00   0.0000000E+00   0.0000000E+00
  -0.3978000E-01   0.1000000E+00  -0.2000000E+00   0.0000000E+00   0.0000000E+00   0.0000000E+00   0.0000000E+00
  -0.5304000E-01   0.9659000E-01  -0.2258800E+00   0.0000000E+00   0.0000000E+00   0.0000000E+00   0.0000000E+00
  -0.5304000E-01   0.9914000E-01  -0.2130500E+00   0.0000000E+00   0.0000000E+00   0.0000000E+00   0.0000000E+00
  -0.3978000E-01   0.9659000E-01  -0.2258800E+00   0.0000000E+00   0.0000000E+00   0.0000000E+00   0.0000000E+00
  -0.3978000E-01   0.9914000E-01  -0.2130500E+00   0.0000000E+00   0.0000000E+00   0.0000000E+00   0.0000000E+00
  -0.5304000E-01   0.9239000E-01  -0.2382700E+00   0.0000000E+00   0.0000000E+00   0.0000000E+00   0.0000000E+00
  -0.5304000E-01   0.9659000E-01  -0.2258800E+00   0.0000000E+00   0.0000000E+00   0.0000000E+00   0.0000000E+00
  -0.3978000E-01   0.9239000E-01  -0.2382700E+00   0.0000000E+00   0.0000000E+00   0.0000000E+00   0.0000000E+00
  -0.3978000E-01   0.9659000E-01  -0.2258800E+00   0.0000000E+00   0.0000000E+00   0.0000000E+00   0.0000000E+00
  -0.5304000E-01   0.8660000E-01  -0.2500000E+00   0.0000000E+00   0.0000000E+00   0.0000000E+00   0.0000000E+00
  -0.5304000E-01   0.9239000E-01  -0.2382700E+00   0.0000000E+00   0.0000000E+00   0.0000000E+00   0.0000000E+00
  -0.3978000E-01   0.8660000E-01  -0.2500000E+00   0.0000000E+00   0.0000000E+00   0.0000000E+00   0.0000000E+00
  -0.3978000E-01   0.9239000E-01  -0.2382700E+00   0.0000000E+00   0.0000000E+00   0.0000000E+00   0.0000000E+00
  -0.5304000E-01   0.7934000E-01  -0.2608800E+00   0.0000000E+00   0.0000000E+00   0.0000000E+00   0.0000000E+00
  -0.5304000E-01   0.8660000E-01  -0.2500000E+00   0.0000000E+00   0.0000000E+00   0.0000000E+00   0.0000000E+00
  -0.3978000E-01   0.7934000E-01  -0.2608800E+00   0.0000000E+00   0.0000000E+00   0.0000000E+00   0.0000000E+00
  -0.3978000E-01   0.8660000E-01  -0.2500000E+00   0.0000000E+00   0.0000000E+00   0.0000000E+00   0.0000000E+00
  -0.5304000E-01   0.7071000E-01  -0.2707100E+00   0.0000000E+00   0.0000000E+00   0.0000000E+00   0.0000000E+00
  -0.5304000E-01   0.7934000E-01  -0.2608800E+00   0.0000000E+00   0.0000000E+00   0.0000000E+00   0.0000000E+00
  -0.3978000E-01   0.7071000E-01  -0.2707100E+00   0.0000000E+00   0.0000000E+00   0.0000000E+00   0.0000000E+00
  -0.3978000E-01   0.7934000E-01  -0.2608800E+00   0.0000000E+00   0.0000000E+00   0.0000000E+00   0.0000000E+00
  -0.5304000E-01   0.6088000E-01  -0.2793400E+00   0.0000000E+00   0.0000000E+00   0.0000000E+00   0.0000000E+00
  -0.5304000E-01   0.7071000E-01  -0.2707100E+00   0.0000000E+00   0.0000000E+00   0.0000000E+00   0.0000000E+00
  -0.3978000E-01   0.6088000E-01  -0.2793400E+00   0.0000000E+00   0.0000000E+00   0.0000000E+00   0.0000000E+00
  -0.3978000E-01   0.7071000E-01  -0.2707100E+00   0.0000000E+00   0.0000000E+00   0.0000000E+00   0.0000000E+00
  -0.5304000E-01   0.5000000E-01  -0.2866000E+00   0.0000000E+00   0.0000000E+00   0.0000000E+00   0.0000000E+00
  -0.5304000E-01   0.6088000E-01  -0.2793400E+00   0.0000000E+00   0.0000000E+00   0.0000000E+00   0.0000000E+00
  -0.3978000E-01   0.5000000E-01  -0.2866000E+00   0.0000000E+00   0.0000000E+00   0.0000000E+00   0.0000000E+00
  -0.3978000E-01   0.6088000E-01  -0.2793400E+00   0.0000000E+00   0.0000000E+00   0.0000000E+00   0.0000000E+00
  -0.5304000E-01   0.3827000E-01  -0.2923900E+00   0.0000000E+00   0.0000000E+00   0.0000000E+00   0.0000000E+00
  -0.5304000E-01   0.5000000E-01  -0.2866000E+00   0.0000000E+00   0.0000000E+00   0.0000000E+00   0.0000000E+00
  -0.3978000E-01   0.3827000E-01  -0.2923900E+00   0.0000000E+00   0.0000000E+00   0.0000000E+00   0.0000000E+00
  -0.3978000E-01   0.5000000E-01  -0.2866000E+00   0.0000000E+00   0.0000000E+00   0.0000000E+00   0.0000000E+00
  -0.5304000E-01   0.2588000E-01  -0.2965900E+00   0.0000000E+00   0.0000000E+00   0.0000000E+00   0.0000000E+00
  -0.5304000E-01   0.3827000E-01  -0.2923900E+00   0.0000000E+00   0.0000000E+00   0.0000000E+00   0.0000000E+00
  -0.3978000E-01   0.2588000E-01  -0.2965900E+00   0.0000000E+00   0.0000000E+00   0.0000000E+00   0.0000000E+00
  -0.3978000E-01   0.3827000E-01  -0.2923900E+00   0.0000000E+00   0.0000000E+00   0.0000000E+00   0.0000000E+00
  -0.5304000E-01   0.1305000E-01  -0.2991400E+00   0.0000000E+00   0.0000000E+00   0.0000000E+00   0.0000000E+00
  -0.5304000E-01   0.2588000E-01  -0.2965900E+00   0.0000000E+00   0.0000000E+00   0.0000000E+00   0.0000000E+00
  -0.3978000E-01   0.1305000E-01  -0.2991400E+00   0.0000000E+00   0.0000000E+00   0.0000000E+00   0.0000000E+00
  -0.3978000E-01   0.2588000E-01  -0.2965900E+00   0.0000000E+00   0.0000000E+00   0.0000000E+00   0.0000000E+00
  -0.5304000E-01   0.0000000E+00  -0.3000000E+00   0.0000000E+00   0.0000000E+00   0.0000000E+00   0.0000000E+00
  -0.5304000E-01   0.1305000E-01  -0.2991400E+00   0.0000000E+00   0.0000000E+00   0.0000000E+00   0.0000000E+00
  -0.3978000E-01   0.0000000E+00  -0.3000000E+00   0.0000000E+00   0.0000000E+00   0.0000000E+00   0.0000000E+00
  -0.3978000E-01   0.1305000E-01  -0.2991400E+00   0.0000000E+00   0.0000000E+00   0.0000000E+00   0.0000000E+00
  -0.5304000E-01   0.1305000E-01  -0.1008600E+00   0.0000000E+00   0.0000000E+00   0.0000000E+00   0.0000000E+00
  -0.5304000E-01   0.0000000E+00  -0.1000000E+00   0.0000000E+00   0.0000000E+00   0.0000000E+00   0.0000000E+00
  -0.3978000E-01   0.1305000E-01  -0.1008600E+00   0.0000000E+00   0.0000000E+00   0.0000000E+00   0.0000000E+00
  -0.3978000E-01   0.0000000E+00  -0.1000000E+00   0.0000000E+00   0.0000000E+00   0.0000000E+00   0.0000000E+00
  -0.5304000E-01   0.2588000E-01  -0.1034100E+00   0.0000000E+00   0.0000000E+00   0.0000000E+00   0.0000000E+00
  -0.5304000E-01   0.1305000E-01  -0.1008600E+00   0.0000000E+00   0.0000000E+00   0.0000000E+00   0.0000000E+00
  -0.3978000E-01   0.2588000E-01  -0.1034100E+00   0.0000000E+00   0.0000000E+00   0.0000000E+00   0.0000000E+00
  -0.3978000E-01   0.1305000E-01  -0.1008600E+00   0.0000000E+00   0.0000000E+00   0.0000000E+00   0.0000000E+00
  -0.5304000E-01   0.3827000E-01  -0.1076100E+00   0.0000000E+00   0.0000000E+00   0.0000000E+00   0.0000000E+00
  -0.5304000E-01   0.2588000E-01  -0.1034100E+00   0.0000000E+00   0.0000000E+00   0.0000000E+00   0.0000000E+00
  -0.3978000E-01   0.3827000E-01  -0.1076100E+00   0.0000000E+00   0.0000000E+00   0.0000000E+00   0.0000000E+00
  -0.3978000E-01   0.2588000E-01  -0.1034100E+00   0.0000000E+00   0.0000000E+00   0.0000000E+00   0.0000000E+00
  -0.5304000E-01   0.5000000E-01  -0.1134000E+00   0.0000000E+00   0.0000000E+00   0.0000000E+00   0.0000000E+00
  -0.5304000E-01   0.3827000E-01  -0.1076100E+00   0.0000000E+00   0.0000000E+00   0.0000000E+00   0.0000000E+00
  -0.3978000E-01   0.5000000E-01  -0.1134000E+00   0.0000000E+00   0.0000000E+00   0.0000000E+00   0.0000000E+00
  -0.3978000E-01   0.3827000E-01  -0.1076100E+00   0.0000000E+00   0.0000000E+00   0.0000000E+00   0.0000000E+00
  -0.5304000E-01   0.6088000E-01  -0.1206600E+00   0.0000000E+00   0.0000000E+00   0.0000000E+00   0.0000000E+00
  -0.5304000E-01   0.5000000E-01  -0.1134000E+00   0.0000000E+00   0.0000000E+00   0.0000000E+00   0.0000000E+00
  -0.3978000E-01   0.6088000E-01  -0.1206600E+00   0.0000000E+00   0.0000000E+00   0.0000000E+00   0.0000000E+00
  -0.3978000E-01   0.5000000E-01  -0.1134000E+00   0.0000000E+00   0.0000000E+00   0.0000000E+00   0.0000000E+00
  -0.5304000E-01   0.7071000E-01  -0.1292900E+00   0.0000000E+00   0.0000000E+00   0.0000000E+00   0.0000000E+00
  -0.5304000E-01   0.6088000E-01  -0.1206600E+00   0.0000000E+00   0.0000000E+00   0.0000000E+00   0.0000000E+00
  -0.3978000E-01   0.7071000E-01  -0.1292900E+00   0.0000000E+00   0.0000000E+00   0.0000000E+00   0.0000000E+00
  -0.3978000E-01   0.6088000E-01  -0.1206600E+00   0.0000000E+00   0.0000000E+00   0.0000000E+00   0.0000000E+00