VARIABLES="w (rad/s)"
"abs(F   1   1)" "angle(F   1   1)"
"abs(F   1   2)" "angle(F   1   2)"
"abs(F   1   3)" "angle(F   1   3)"
"abs(F   1   4)" "angle(F   1   4)"
"abs(F   1   5)" "angle(F   1   5)"
"abs(F   1   6)" "angle(F   1   6)"
"abs(F   2   1)" "angle(F   2   1)"
"abs(F   2   2)" "angle(F   2   2)"
"abs(F   2   3)" "angle(F   2   3)"
"abs(F   2   4)" "angle(F   2   4)"
"abs(F   2   5)" "angle(F   2   5)"
"abs(F   2   6)" "angle(F   2   6)"
Zone t="Diffraction force - beta =   0.000 deg",I=   500,F=POINT
  0.3000000E-01  0.6758517E+04 -0.1570754E+01  0.2879334E-02  0.1447417E+01  0.7153085E+03 -0.2580255E+01  0.3708880E-02 -0.2183102E+01  0.5010002E+04 -0.1571021E+01  0.2328990E-02  0.1580829E+01  0.6758937E+04 -0.1356372E+01  0.4698092E-02  0.1779409E+01  0.6656003E+03 -0.2834790E+01  0.6276307E-02 -0.1563303E+01  0.5010691E+04 -0.1355934E+01  0.2065214E-02 -0.1608440E+01
  0.6000000E-01  0.1365799E+05 -0.1568798E+01  0.6775906E-02  0.1445665E+01  0.2023656E+04 -0.2487553E+01  0.5825250E-02 -0.2696653E+01  0.1011564E+05 -0.1567073E+01  0.3169453E-02  0.2574956E+01  0.1366272E+05 -0.1143135E+01  0.9604620E-02  0.1787788E+01  0.2077967E+04 -0.2508356E+01  0.1509284E-01 -0.2021445E+01  0.1011628E+05 -0.1143998E+01  0.1914142E-02 -0.2288502E+01
  0.9000000E-01  0.2047269E+05 -0.1567563E+01  0.1265453E-01  0.1337251E+01  0.3731410E+04 -0.2501778E+01  0.1954015E-01 -0.2656499E+01  0.1520364E+05 -0.1564363E+01  0.1706486E-02  0.2391372E+01  0.2051030E+05 -0.9290598E+00  0.1534386E-01  0.1940523E+01  0.4432191E+04 -0.2245592E+01  0.2727618E-01 -0.1741796E+01  0.1526254E+05 -0.9322389E+00  0.6766083E-02 -0.2879247E+01
  0.1200000E+00  0.2729482E+05 -0.1570137E+01  0.1980413E-01  0.1377651E+01  0.5395655E+04 -0.2548600E+01  0.4056836E-01 -0.2395193E+01  0.2020671E+05 -0.1569930E+01  0.1168075E-01  0.2326747E+01  0.2738658E+05 -0.7103459E+00  0.1674772E-01  0.2134949E+01  0.7404096E+04 -0.1997053E+01  0.5163456E-01 -0.1755282E+01  0.2033227E+05 -0.7103803E+00  0.3656041E-02  0.3112373E+01
  0.1500000E+00  0.3417981E+05 -0.1571251E+01  0.3823463E-01  0.1431396E+01  0.7217818E+04 -0.2659721E+01  0.5046082E-01 -0.2726914E+01  0.2524151E+05 -0.1571534E+01  0.5818199E-02 -0.3037814E+01  0.3433154E+05 -0.4931540E+00  0.2325040E-01  0.2154886E+01  0.1101367E+05 -0.1762671E+01  0.7432197E-01 -0.1718123E+01  0.2544674E+05 -0.4940922E+00  0.2356483E-02  0.2721396E+01
  0.1800000E+00  0.4115795E+05 -0.1575058E+01  0.2100363E-01  0.1083561E+01  0.9642934E+04 -0.2825172E+01  0.7675312E-01 -0.2967936E+01  0.3033708E+05 -0.1578238E+01  0.1774025E-01  0.1603594E+01  0.4132862E+05 -0.2729817E+00  0.3408353E-01  0.2166063E+01  0.1522386E+05 -0.1528884E+01  0.9183885E-01 -0.1570049E+01  0.3057146E+05 -0.2743549E+00  0.3283351E-01 -0.3975080E+00
  0.2100000E+00  0.4818186E+05 -0.1579749E+01  0.2788634E-01  0.1069134E+01  0.1347098E+05 -0.2974549E+01  0.1041444E+00 -0.2738268E+01  0.3546764E+05 -0.1586612E+01  0.1994511E-01  0.1496328E+01  0.4828746E+05 -0.4979205E-01  0.4118003E-01  0.2589631E+01  0.1996293E+05 -0.1294743E+01  0.1378327E+00 -0.1467658E+01  0.3564236E+05 -0.5050830E-01  0.5249798E-01 -0.6151228E-01
  0.2400000E+00  0.5570773E+05 -0.1583366E+01  0.4117449E-01  0.1181860E+01  0.1922313E+05 -0.3060973E+01  0.1145606E+00 -0.2701871E+01  0.4105677E+05 -0.1592748E+01  0.1701839E-01  0.1810230E+01  0.5546356E+05  0.1758970E+00  0.5012399E-01  0.2542582E+01  0.2520948E+05 -0.1059644E+01  0.1847057E+00 -0.1172667E+01  0.4077815E+05  0.1751823E+00  0.7183861E-01  0.2548848E-02
  0.2700000E+00  0.6358216E+05 -0.1584695E+01  0.4820435E-01  0.1134456E+01  0.2696066E+05 -0.3079744E+01  0.1295460E+00 -0.2820494E+01  0.4712994E+05 -0.1594877E+01  0.1062560E-01 -0.2828470E+01  0.6271708E+05  0.4052902E+00  0.6043172E-01  0.2723612E+01  0.3094716E+05 -0.8234699E+00  0.2260668E+00 -0.1001912E+01  0.4605311E+05  0.4048311E+00  0.8223610E-01  0.3578586E+00
  0.3000000E+00  0.7167109E+05 -0.1581887E+01  0.8360242E-01  0.1224384E+01  0.3621422E+05 -0.3045321E+01  0.1955459E+00 -0.2700237E+01  0.5326718E+05 -0.1590102E+01  0.1581901E-01  0.2369836E+01  0.6995927E+05  0.6387752E+00  0.6738740E-01  0.3035565E+01  0.3704868E+05 -0.5842094E+00  0.2577227E+00 -0.6951401E+00  0.5117342E+05  0.6387162E+00  0.5805929E-01  0.9449073E-01
  0.3300000E+00  0.8005764E+05 -0.1573076E+01  0.8293764E-01  0.1142690E+01  0.4655088E+05 -0.2977545E+01  0.1882192E+00 -0.2898010E+01  0.5961821E+05 -0.1574775E+01  0.2391155E-01  0.2151719E+01  0.7728230E+05  0.8771359E+00  0.8496596E-01 -0.2978570E+01  0.4370614E+05 -0.3420665E+00  0.2829946E+00 -0.4241397E+00  0.5619061E+05  0.8780288E+00  0.6450342E-01  0.3602104E+00
  0.3600000E+00  0.8866056E+05 -0.1558627E+01  0.6039947E-01  0.1081697E+01  0.5683654E+05 -0.2889347E+01  0.2295371E+00 -0.2879442E+01  0.6619095E+05 -0.1549954E+01  0.6576802E-01  0.2006218E+01  0.8492560E+05  0.1120605E+01  0.8389629E-01 -0.2669770E+01  0.5062693E+05 -0.9514410E-01  0.3407968E+00 -0.2599650E+00  0.6154424E+05  0.1122642E+01  0.6475692E-01  0.1072578E+01
  0.3900000E+00  0.9686665E+05 -0.1540405E+01  0.9481664E-01  0.1140999E+01  0.6613473E+05 -0.2791751E+01  0.2470804E+00 -0.2907631E+01  0.7207598E+05 -0.1518943E+01  0.5159714E-01  0.1421789E+01  0.9267528E+05  0.1369861E+01  0.1015052E+00 -0.2742899E+01  0.5790550E+05  0.1560760E+00  0.3613617E+00  0.4138141E-02  0.6689331E+05  0.1372849E+01  0.7684130E-02  0.7629300E+00
  0.4200000E+00  0.1043126E+06 -0.1521383E+01  0.7075119E-01  0.7246274E+00  0.7355373E+05 -0.2695772E+01  0.2475730E+00 -0.3032222E+01  0.7676954E+05 -0.1485779E+01  0.5961764E-01  0.1907278E+01  0.1005330E+06  0.1625679E+01  0.1243117E+00 -0.2595084E+01  0.6571819E+05  0.4130695E+00  0.4481921E+00  0.2837104E+00  0.7214108E+05  0.1630040E+01  0.2367953E-01  0.1224998E+01
  0.4500000E+00  0.1107019E+06 -0.1506772E+01  0.1009914E+00  0.7743403E+00  0.7801823E+05 -0.2612005E+01  0.3155139E+00 -0.3140239E+01  0.8016812E+05 -0.1459177E+01  0.7201403E-01  0.1609369E+01  0.1084729E+06  0.1888585E+01  0.1361323E+00 -0.2291524E+01  0.7387589E+05  0.6780425E+00  0.3985026E+00  0.5159166E+00  0.7746007E+05  0.1894850E+01  0.2253186E-01  0.1264680E+01
  0.4800000E+00  0.1161105E+06 -0.1502533E+01  0.6869707E-01  0.5105503E+00  0.7886098E+05 -0.2557221E+01  0.2931949E+00 -0.3047045E+01  0.8201891E+05 -0.1449236E+01  0.7482500E-01  0.1792230E+01  0.1165022E+06  0.2159116E+01  0.1261269E+00 -0.2056209E+01  0.8201714E+05  0.9511148E+00  0.4611221E+00  0.7542965E+00  0.8259484E+05  0.2167412E+01  0.3324631E-01  0.2063184E+01
  0.5100000E+00  0.1214444E+06 -0.1513845E+01  0.1008222E+00  0.7689036E+00  0.7722670E+05 -0.2555531E+01  0.3077033E+00 -0.2921173E+01  0.8333136E+05 -0.1466869E+01  0.2171334E-01  0.2100489E+01  0.1248855E+06  0.2438233E+01  0.1480069E+00 -0.1972669E+01  0.9048459E+05  0.1233117E+01  0.4150649E+00  0.9707621E+00  0.8785667E+05  0.2448598E+01  0.6482454E-01  0.1809381E+01
  0.5400000E+00  0.1282424E+06 -0.1541521E+01  0.1311219E+00  0.1069767E+01  0.7586004E+05 -0.2629523E+01  0.3240474E+00 -0.2848235E+01  0.8620970E+05 -0.1516545E+01  0.7169699E-01  0.2176065E+01  0.1338082E+06  0.2726883E+01  0.1569290E+00 -0.1613787E+01  0.9921505E+05  0.1524809E+01  0.4175977E+00  0.1340317E+01  0.9360517E+05  0.2739633E+01  0.3303632E-01  0.1602209E+01
  0.5699999E+00  0.1381226E+06 -0.1577521E+01  0.1129661E+00  0.6353358E+00  0.7941811E+05 -0.2769853E+01  0.2660796E+00 -0.3115268E+01  0.9295698E+05 -0.1583018E+01  0.4420399E-01  0.2654478E+01  0.1430759E+06  0.3026306E+01  0.1611672E+00 -0.1260707E+01  0.1079274E+06  0.1827623E+01  0.4393630E+00  0.1643514E+01  0.9974537E+05  0.3042008E+01  0.7403001E-01  0.2441998E+01
  0.6000000E+00  0.1523383E+06 -0.1604802E+01  0.9578040E-01  0.3190679E+00  0.9179631E+05 -0.2904317E+01  0.3039550E+00 -0.3025974E+01  0.1048374E+06 -0.1631325E+01  0.3526136E-01 -0.2950902E+01  0.1526213E+06 -0.2945122E+01  0.1626083E+00 -0.1179939E+01  0.1159090E+06  0.2139143E+01  0.4279605E+00  0.1896865E+01  0.1059356E+06 -0.2925143E+01  0.1160893E+00  0.3138832E+01
  0.6299999E+00  0.1706310E+06 -0.1605895E+01  0.1016680E+00  0.7460684E+00  0.1127869E+06 -0.2957808E+01  0.1749453E+00 -0.3046116E+01  0.1211080E+06 -0.1631054E+01  0.1127172E+00 -0.2442452E+01  0.1624791E+06 -0.2619379E+01  0.1764668E+00 -0.9505444E+00  0.1237858E+06  0.2460067E+01  0.3470842E+00  0.2294386E+01  0.1120990E+06 -0.2593386E+01  0.1378438E+00 -0.2797437E+01
  0.6600000E+00  0.1905841E+06 -0.1572575E+01  0.1458296E+00  0.5487280E+00  0.1376062E+06 -0.2922753E+01  0.1458460E+00 -0.3079931E+01  0.1386854E+06 -0.1573821E+01  0.7546011E-01 -0.2604086E+01  0.1726058E+06 -0.2278096E+01  0.1809662E+00 -0.3145246E+00  0.1318427E+06  0.2790733E+01  0.3116407E+00  0.2782363E+01  0.1181670E+06 -0.2243908E+01  0.2075856E+00 -0.2288990E+01
  0.6899999E+00  0.2079465E+06 -0.1509256E+01  0.9993478E-01 -0.3634762E-01  0.1601676E+06 -0.2826111E+01  0.2501850E+00 -0.3072497E+01  0.1532852E+06 -0.1470507E+01  0.1771500E+00 -0.1647013E+01  0.1828381E+06 -0.1920669E+01  0.2280803E+00 -0.2447515E+00  0.1405379E+06  0.3134213E+01  0.3395056E+00  0.2998361E+01  0.1242887E+06 -0.1876632E+01  0.1706723E+00 -0.2049478E+01
  0.7200000E+00  0.2178452E+06 -0.1431997E+01  0.1139263E+00  0.4260441E-01  0.1732815E+06 -0.2700137E+01  0.8323303E-01 -0.1146020E+01  0.1596824E+06 -0.1343546E+01  0.1842496E+00 -0.1669674E+01  0.1930125E+06 -0.1547207E+01  0.2030825E+00 -0.1036894E-01  0.1488501E+06 -0.2791432E+01  0.1857051E+00 -0.2740822E+01  0.1302611E+06 -0.1492139E+01  0.2491444E+00 -0.1790342E+01
  0.7499999E+00  0.2175063E+06 -0.1368319E+01  0.2617374E+00 -0.6677030E+00  0.1733438E+06 -0.2579012E+01  0.5931450E+00  0.2502311E+01  0.1543985E+06 -0.1227993E+01  0.8396509E-01 -0.2075742E+01  0.2034345E+06 -0.1158462E+01  0.1320981E+00  0.6565152E+00  0.1575050E+06 -0.2417085E+01  0.1355679E+00 -0.1929211E+01  0.1362615E+06 -0.1092699E+01  0.1421179E+00 -0.1281952E+01
  0.7800000E+00  0.2089510E+06 -0.1358119E+01  0.4756759E+00 -0.3459578E+00  0.1602676E+06 -0.2505955E+01  0.1958235E+01  0.2935516E+01  0.1378758E+06 -0.1184120E+01  0.9173381E-01  0.2556543E+01  0.2143135E+06 -0.7540997E+00  0.4632070E+00  0.5610470E+00  0.1661783E+06 -0.2019229E+01  0.2460838E+01 -0.2508469E+01  0.1423024E+06 -0.6788458E+00  0.1164195E+00 -0.5035111E-01
  0.8100000E+00  0.2044043E+06 -0.1436396E+01  0.5476635E+00  0.3033056E+00  0.1422017E+06 -0.2548920E+01  0.2386365E+01 -0.3104703E+01  0.1223979E+06 -0.1305452E+01  0.2359632E+00  0.1807745E+01  0.2264859E+06 -0.3315450E+00  0.4924397E+00  0.1094732E+01  0.1743489E+06 -0.1596992E+01  0.3034000E+01 -0.2078082E+01  0.1493406E+06 -0.2473027E+00  0.2060912E+00  0.2862561E+01
  0.8400000E+00  0.2236655E+06 -0.1558240E+01  0.5380993E+00  0.7447844E+00  0.1385833E+06 -0.2733663E+01  0.2044843E+01 -0.2941454E+01  0.1351210E+06 -0.1545742E+01  0.3021978E+00  0.1624761E+01  0.2406357E+06  0.1146944E+00  0.3602420E+00  0.1554022E+01  0.1811633E+06 -0.1150946E+01  0.2683016E+01 -0.1630388E+01  0.1588173E+06  0.2092890E+00  0.3626982E+00 -0.3021997E+01
  0.8700000E+00  0.2715408E+06 -0.1592125E+01  0.3730033E+00  0.8380466E+00  0.1645262E+06 -0.2891323E+01  0.1523722E+01 -0.2906380E+01  0.1825672E+06 -0.1606562E+01  0.2927022E+00  0.1454071E+01  0.2562010E+06  0.5921779E+00  0.3529191E+00  0.2172182E+01  0.1846449E+06 -0.6948863E+00  0.2051364E+01 -0.1101440E+01  0.1703275E+06  0.7041876E+00  0.2084442E+00 -0.2322439E+01
  0.9000000E+00  0.3243815E+06 -0.1493912E+01  0.6393642E+00 -0.1053598E+01  0.2049554E+06 -0.2869791E+01  0.6324647E+00  0.2602845E+01  0.2352450E+06 -0.1449378E+01  0.2597988E+00  0.1554820E+01  0.2706499E+06  0.1104260E+01  0.1795077E+00  0.2840219E+01  0.1869696E+06 -0.2292682E+00  0.7811800E+00 -0.3000557E+00  0.1808727E+06  0.1243924E+01  0.2959041E-01 -0.1118218E+01
  0.9300000E+00  0.3496260E+06 -0.1317615E+01  0.1015954E+01 -0.1136908E+01  0.2327165E+06 -0.2722734E+01  0.1361551E+01  0.2263727E+01  0.2609795E+06 -0.1181862E+01  0.3070942E-01  0.2385233E-01  0.2813669E+06  0.1645604E+01  0.1044764E+00 -0.2287153E+01  0.1913836E+06  0.2472306E+00  0.3127694E+00  0.6457843E+00  0.1874235E+06  0.1820804E+01  0.1560066E+00 -0.1567666E+01
  0.9600000E+00  0.3267842E+06 -0.1153614E+01  0.7176948E+00 -0.7224331E+00  0.2296038E+06 -0.2550477E+01  0.1677198E+01  0.2935733E+01  0.2391360E+06 -0.9020458E+00  0.1944440E+00  0.4424489E+00  0.2882633E+06  0.2201894E+01  0.3784811E+00 -0.2155176E+01  0.1989636E+06  0.7552765E+00  0.2056934E+01  0.4915317E+00  0.1894584E+06  0.2411834E+01  0.2934369E+00 -0.1168581E+01
  0.9900000E+00  0.2715442E+06 -0.1148807E+01  0.1295542E+00  0.2285114E-01  0.1975014E+06 -0.2461570E+01  0.9104449E+00 -0.2867679E+01  0.1742108E+06 -0.7807301E+00  0.1540149E+00  0.8102004E+00  0.2965619E+06  0.2763439E+01  0.2641907E+00 -0.1422512E+01  0.2071180E+06  0.1310538E+01  0.1365582E+01  0.9063584E+00  0.1927021E+06  0.2993481E+01  0.2802710E+00 -0.6114396E+00
  0.1020000E+01  0.2644087E+06 -0.1409458E+01  0.1674210E+00 -0.2646188E+01  0.1663144E+06 -0.2601055E+01  0.6319286E+00  0.4499546E+00  0.1379269E+06 -0.1219954E+01  0.3699738E+00  0.2009357E+01  0.3125237E+06 -0.2937991E+01  0.8299471E-01  0.8465053E+00  0.2100592E+06  0.1902270E+01  0.6635467E+00 -0.2128972E+01  0.2046616E+06 -0.2700951E+01  0.2168630E-01 -0.2312398E+01
  0.1050000E+01  0.3605232E+06 -0.1508025E+01  0.5056218E-01  0.5720990E+00  0.1873960E+06 -0.2842025E+01  0.4342103E+00  0.3136251E+01  0.2309703E+06 -0.1460012E+01  0.2774377E+00  0.2404865E+01  0.3349782E+06 -0.2301976E+01  0.2558157E+00 -0.2791845E+00  0.2061350E+06  0.2502031E+01  0.8845822E+00  0.2255322E+01  0.2263953E+06 -0.2046687E+01  0.1463452E+00  0.2417418E+00
  0.1080000E+01  0.4542330E+06 -0.1294493E+01  0.1799156E+00  0.1163844E+01  0.2382504E+06 -0.2803446E+01  0.4948688E+00 -0.1905125E+01  0.3330020E+06 -0.1153236E+01  0.3317072E+00  0.2176457E+01  0.3500737E+06 -0.1601777E+01  0.2259033E+00  0.6439334E+00  0.2015359E+06  0.3092771E+01  0.7479986E+00  0.2904372E+01  0.2448557E+06 -0.1300420E+01  0.8563604E-01  0.7380067E+00
  0.1110000E+01  0.4422124E+06 -0.9966764E+00  0.2934622E+00 -0.6591005E+00  0.2544803E+06 -0.2605660E+01  0.1111714E+01  0.2540433E+01  0.3423863E+06 -0.7140619E+00  0.3637892E+00  0.2312166E+01  0.3467405E+06 -0.8806175E+00  0.9277447E-01  0.1830615E+01  0.2049638E+06 -0.2585711E+01  0.4428408E+00 -0.2997201E+01  0.2455756E+06 -0.5144094E+00  0.1559464E+00  0.1348222E+01
  0.1140000E+01  0.3296938E+06 -0.8695563E+00  0.1407878E+00  0.6855076E-01  0.2214600E+06 -0.2459837E+01  0.6522641E+00 -0.2978425E+01  0.2440052E+06 -0.3697179E+00  0.1143621E+00  0.3098884E+01  0.3379233E+06 -0.1884205E+00  0.1581204E+00  0.1439954E+01  0.2123377E+06 -0.1920476E+01  0.1317868E+01 -0.2562196E+01  0.2354194E+06  0.2290963E+00  0.3479229E+00  0.2543859E+01
  0.1170000E+01  0.2812351E+06 -0.1237874E+01  0.2361475E+00 -0.1421497E+01  0.1794442E+06 -0.2556853E+01  0.6113077E+00  0.2325231E+01  0.1378177E+06 -0.7724106E+00  0.3258035E+00  0.2559201E+01  0.3475904E+06  0.4980161E+00  0.8281596E-01  0.2149396E+01  0.2130910E+06 -0.1195025E+01  0.1173228E+01 -0.1853712E+01  0.2410393E+06  0.9174687E+00  0.2671061E+00  0.1700955E+01
  0.1200000E+01  0.4257081E+06 -0.1339344E+01  0.1628982E+00  0.2415520E+01  0.1989888E+06 -0.2793382E+01  0.1517494E+00 -0.1512229E+01  0.2669594E+06 -0.1168139E+01  0.2723337E+00 -0.1893216E+01  0.3727778E+06  0.1266467E+01  0.2507009E+00 -0.8390489E+00  0.2034538E+06 -0.4759023E+00  0.3405007E+00  0.2591582E+01  0.2724266E+06  0.1683759E+01  0.2017188E+00  0.1855413E+01
  0.1230000E+01  0.5105580E+06 -0.1006888E+01  0.3554199E+00  0.3124763E+01  0.2433120E+06 -0.2711363E+01  0.6583266E+00  0.8856353E-01  0.3845281E+06 -0.7285815E+00  0.3771291E+00  0.2932263E+01  0.3761423E+06  0.2120695E+01  0.3246386E+00 -0.2210141E+00  0.1967430E+06  0.2162443E+00  0.5650237E+00  0.3089935E+01  0.2943061E+06  0.2583963E+01  0.6486794E-01 -0.2698144E+01
  0.1260000E+01  0.4147120E+06 -0.6935464E+00  0.6342555E+00 -0.2999559E+01  0.2356387E+06 -0.2522370E+01  0.7710571E+00  0.3424409E+00  0.3413055E+06 -0.2254688E+00  0.5328071E+00  0.2950735E+01  0.3497250E+06  0.2952625E+01  0.3023830E+00  0.9497021E+00  0.1999699E+06  0.9421898E+00  0.6102673E+00 -0.2046386E+01  0.2823196E+06 -0.2789513E+01  0.2918952E+00 -0.1756709E+01
  0.1290000E+01  0.2738908E+06 -0.8522254E+00  0.4641006E+00 -0.2369354E+01  0.1929832E+06 -0.2496031E+01  0.1214022E+01  0.4439956E+00  0.1886087E+06 -0.5096300E-01  0.1636799E+00  0.2339319E+01  0.3337831E+06 -0.2563148E+01  0.4811861E+00  0.1780220E+01  0.2018694E+06  0.1738018E+01  0.1076393E+01 -0.1533704E+01  0.2652655E+06 -0.1972537E+01  0.1090389E+00 -0.4950692E+00
  0.1320000E+01  0.3641658E+06 -0.1205826E+01  0.4268048E+00 -0.1005126E+01  0.1844981E+06 -0.2693439E+01  0.9917476E+00  0.6556131E+00  0.1952883E+06 -0.8008117E+00  0.3980836E+00 -0.2745088E+00  0.3479881E+06 -0.1750731E+01  0.7645321E+00  0.2599927E+01  0.1944396E+06  0.2559823E+01  0.1252806E+01 -0.8130645E+00  0.2797615E+06 -0.1172341E+01  0.1190207E+00 -0.4498870E+00
  0.1350000E+01  0.4743135E+06 -0.9283553E+00  0.3385001E+00 -0.2967618E+01  0.2177842E+06 -0.2703491E+01  0.1150662E+01  0.1041535E+00  0.3406706E+06 -0.5427538E+00  0.3826383E+00 -0.2641154E+01  0.3531740E+06 -0.8214972E+00  0.5370575E+00 -0.2654309E+01  0.1852252E+06 -0.2924416E+01  0.8925862E+00 -0.1244550E-01  0.3074915E+06 -0.2405329E+00  0.4277050E+00  0.1282137E+00
  0.1380000E+01  0.3987103E+06 -0.5942178E+00  0.8723583E+00 -0.2732753E+01  0.2182698E+06 -0.2552643E+01  0.1604705E+01  0.4456162E+00  0.3375543E+06 -0.4060649E-01  0.6422614E+00  0.2600945E+01  0.3240815E+06  0.1140847E+00  0.4461738E+00 -0.1694778E+01  0.1831313E+06 -0.2115955E+01  0.8407186E+00  0.7775567E+00  0.3038720E+06  0.7527939E+00  0.2458846E+00  0.1113143E+01
  0.1410000E+01  0.2611177E+06 -0.6854038E+00  0.4567570E+00 -0.1174669E+01  0.1874190E+06 -0.2509899E+01  0.4760346E+00  0.9682845E+00  0.2129639E+06  0.2263936E+00  0.4920085E+00 -0.1454058E+00  0.2956966E+06  0.9767395E+00  0.2165641E+00 -0.5695933E+00  0.1819715E+06 -0.1252075E+01  0.3419421E+00  0.1746627E+01  0.2832733E+06  0.1682094E+01  0.8641509E-01  0.1497275E+01
  0.1440000E+01  0.3116638E+06 -0.1052087E+01  0.5111254E+00  0.9988490E+00  0.1743958E+06 -0.2638128E+01  0.3731043E+00 -0.2411051E+01  0.1686914E+06 -0.3275303E+00  0.4310090E+00 -0.1193130E+01  0.2930372E+06  0.1848522E+01  0.1175592E+00  0.2672931E+01  0.1750035E+06 -0.3553490E+00  0.2922980E+00 -0.6823394E+00  0.2817361E+06  0.2563557E+01  0.3572659E+00  0.2387366E+01
  0.1470000E+01  0.4004131E+06 -0.8320192E+00  0.6816340E+00  0.2834117E+01  0.1918773E+06 -0.2672295E+01  0.5546309E+00  0.5615319E-01  0.2833456E+06 -0.2711799E+00  0.3441859E+00 -0.2387673E+01  0.2924999E+06  0.2826194E+01  0.2651800E+00 -0.2674342E+01  0.1658185E+06  0.5294979E+00  0.4303066E+00  0.2550929E+00  0.2989294E+06 -0.2756094E+01  0.1576419E+00 -0.2000500E+01
  0.1500000E+01  0.3372813E+06 -0.4970832E+00  0.2613370E+00 -0.2156111E+01  0.1926307E+06 -0.2565449E+01  0.1351929E+00 -0.2658965E+01  0.3035446E+06  0.2004419E+00  0.2625210E+00 -0.1299650E+01  0.2665910E+06 -0.2437820E+01  0.3564341E+00 -0.1033681E+01  0.1615736E+06  0.1417758E+01  0.3872834E+00  0.1837449E+01  0.2997402E+06 -0.1705192E+01  0.4160381E+00 -0.1969774E+01
  0.1530000E+01  0.1984141E+06 -0.6069643E+00  0.3101780E+00  0.8206776E+00  0.1674148E+06 -0.2518689E+01  0.4393964E+00 -0.2758043E+01  0.1974703E+06  0.5847437E+00  0.4758210E+00 -0.1434922E+01  0.2313980E+06 -0.1481434E+01  0.3282628E+00 -0.3020668E+00  0.1591429E+06  0.2351598E+01  0.4530289E+00  0.2658784E+01  0.2785957E+06 -0.6711768E+00  0.1596935E+00 -0.7951276E+00
  0.1560000E+01  0.2724767E+06 -0.1105772E+01  0.3001795E+00  0.2834969E+01  0.1540545E+06 -0.2652277E+01  0.3322936E+00  0.3997787E+00  0.1258771E+06 -0.1501392E+00  0.7064562E+00 -0.2138334E+01  0.2188618E+06 -0.5676526E+00  0.3009436E+00  0.1406064E+00  0.1521993E+06 -0.2958302E+01  0.5531090E+00  0.2914761E+01  0.2640670E+06  0.2812853E+00  0.3766275E+00  0.3987740E+00
  0.1590000E+01  0.3643467E+06 -0.6841865E+00  0.2332061E+00 -0.2503156E+01  0.1735728E+06 -0.2662100E+01  0.1664927E+00  0.7334009E+00  0.2804181E+06 -0.2019290E-01  0.5695403E+00  0.3046285E+01  0.2191146E+06  0.4926547E+00  0.2156150E+00  0.1344098E+01  0.1413626E+06 -0.1993882E+01  0.2148432E+00 -0.2266480E+01  0.2805497E+06  0.1288454E+01  0.4847099E+00  0.1500727E+01
  0.1620000E+01  0.2173133E+06 -0.1835931E+00  0.2275396E+00  0.1249300E+01  0.1640979E+06 -0.2501498E+01  0.3863499E+00 -0.1902938E+01  0.2779334E+06  0.7015200E+00  0.1510463E+00 -0.2183906E+01  0.1856523E+06  0.1635477E+01  0.2078813E+00  0.2489460E+01  0.1365195E+06 -0.1033326E+01  0.1983919E+00 -0.4977753E+00  0.2800215E+06  0.2435505E+01  0.4439897E+00  0.2189000E+01
  0.1650000E+01  0.1440670E+06 -0.1388348E+01  0.3247526E+00 -0.2930375E+01  0.1305561E+06 -0.2551996E+01  0.3629456E+00  0.1850277E+00  0.8469044E+05  0.1214317E+01  0.5477437E+00 -0.2232172E+01  0.1441696E+06  0.2601961E+01  0.1798545E+00  0.2536177E+01  0.1334168E+06 -0.8648488E-02  0.2563036E+00 -0.4282830E+00  0.2458506E+06 -0.2746686E+01  0.6624649E+00 -0.2864229E+01
  0.1680000E+01  0.3458015E+06 -0.9258977E+00  0.4855123E+00 -0.2400522E+01  0.1450838E+06 -0.2724058E+01  0.4648290E+00  0.7752079E+00  0.2103243E+06 -0.2517113E+00  0.2107554E+00  0.2122888E+01  0.1474977E+06 -0.2717498E+01  0.2329471E+00 -0.3092462E+01  0.1232364E+06  0.1037096E+01  0.1690716E+00 -0.2154927E+00  0.2396717E+06 -0.1773638E+01  0.1312162E+00 -0.3953636E+00
  0.1710000E+01  0.2309620E+06 -0.5617884E-01  0.7785603E-01  0.2480687E+01  0.1499405E+06 -0.2529851E+01  0.2049945E+00 -0.9520698E+00  0.3005479E+06  0.7267933E+00  0.2611702E+00  0.1101296E+01  0.1335081E+06 -0.1398771E+01  0.3371402E+00 -0.1877461E+01  0.1157938E+06  0.2037284E+01  0.2372047E+00  0.1336302E+01  0.2608477E+06 -0.5954503E+00  0.2971255E+00  0.6573447E-02
  0.1740000E+01  0.8601446E+05 -0.1934829E+01  0.3882022E+00  0.3223674E-01  0.1133851E+06 -0.2507531E+01  0.4169877E+00  0.3093418E+01  0.1369095E+06  0.1787089E+01  0.5534195E+00 -0.3009304E+01  0.8231718E+05 -0.1928531E+00  0.3807422E+00 -0.7116517E+00  0.1134034E+06  0.3097116E+01  0.3769858E+00  0.2238002E+01  0.2339578E+06  0.6590735E+00  0.5203941E+00  0.9421208E+00
  0.1770000E+01  0.3207557E+06 -0.1069806E+01  0.4948937E+00  0.2686248E+00  0.1202863E+06 -0.2748210E+01  0.4980901E+00 -0.2795801E+01  0.1584618E+06 -0.4194896E+00  0.4430450E+00  0.1684471E+01  0.7072573E+05  0.5922982E+00  0.6730942E+00  0.1380884E+00  0.1047644E+06 -0.2064095E+01  0.5844434E+00 -0.3030036E+01  0.2045068E+06  0.1702927E+01  0.3641707E-01 -0.1333948E+01
  0.1800000E+01  0.1999812E+06  0.6655829E-01  0.3235557E+00  0.7168336E-02  0.1295782E+06 -0.2541464E+01  0.4065174E+00 -0.3034185E+01  0.2865123E+06  0.8433442E+00  0.5751895E+00  0.2041278E+01  0.7204964E+05  0.2152818E+01  0.6918921E+00  0.1340239E+01  0.9567527E+05 -0.1006839E+01  0.6738448E+00 -0.1904291E+01  0.2306184E+06  0.2871320E+01  0.6551026E-01 -0.2406285E+01
  0.1830000E+01  0.1071548E+06 -0.2344354E+01  0.5027127E+00  0.3471891E+00  0.9525973E+05 -0.2497660E+01  0.3109681E+00 -0.2744265E+01  0.1475307E+06  0.2113335E+01  0.2753680E+00  0.2632729E+01  0.3851028E+05 -0.2179490E+01  0.7384329E+00  0.2419563E+01  0.9341064E+05  0.1067045E+00  0.6623003E+00 -0.8508046E+00  0.2154161E+06 -0.2054426E+01  0.3307327E+00 -0.1285703E+01
  0.1860000E+01  0.2908645E+06 -0.1030786E+01  0.1286008E+00  0.2685507E+01  0.1026393E+06 -0.2753389E+01  0.3263113E+00 -0.2878960E+00  0.1438003E+06 -0.3477770E+00  0.7724974E+00  0.9835169E+00  0.1003618E+05 -0.7494169E+00  0.2615706E+00 -0.2237442E+01  0.8566745E+05  0.1281186E+01  0.1824166E+00  0.8385863E+00  0.1800672E+06 -0.9073249E+00  0.1160261E+00 -0.9407624E+00
  0.1890000E+01  0.1319200E+06  0.3484884E+00  0.9374437E-01  0.3858261E+00  0.1077018E+06 -0.2515758E+01  0.3637122E-01 -0.4366271E+00  0.2563988E+06  0.1107434E+01  0.4603280E+00  0.1839188E+01  0.3734233E+05  0.6541106E+00  0.2191061E+00 -0.9409453E+00  0.7799264E+05  0.2407605E+01  0.1442031E+00  0.2274097E+01  0.2031100E+06  0.3048205E+00  0.3943712E+00  0.1516912E+01
  0.1920000E+01  0.1510310E+06 -0.2247152E+01  0.5950999E+00 -0.2419931E+01  0.7744684E+05 -0.2517707E+01  0.8101876E+00  0.2786774E+00  0.1251732E+06  0.2535531E+01  0.2129659E+00 -0.2168656E+01  0.6695302E+05  0.2628709E+01  0.2084084E+00  0.2418671E+01  0.7565713E+05 -0.2695035E+01  0.3390965E+00 -0.7039798E+00  0.1951638E+06  0.1738367E+01  0.6211113E+00  0.1822353E+01
  0.1950000E+01  0.2318557E+06 -0.7944089E+00  0.3572953E+00 -0.3023276E+01  0.8835950E+05 -0.2729110E+01  0.4263932E+00 -0.7852297E-01  0.1427303E+06  0.7109349E-01  0.5393778E+00 -0.6224068E+00  0.6416150E+05 -0.2149051E+01  0.4453599E+00 -0.2486662E+01  0.6836498E+05 -0.1499541E+01  0.6150275E+00  0.4846859E+00  0.1694195E+06  0.2967692E+01  0.3202958E+00 -0.1850352E+01
  0.1980000E+01  0.5814088E+05  0.1244676E+01  0.7518465E+00 -0.3135179E+01  0.8324790E+05 -0.2499532E+01  0.1023815E+01 -0.3316669E+00  0.2226559E+06  0.1534308E+01  0.5080391E+00 -0.2304862E+01  0.8897978E+05 -0.1111483E+01  0.7493272E+00 -0.1090688E+01  0.6195935E+05 -0.3247840E+00  0.9849846E+00  0.1847980E+01  0.1915359E+06 -0.2012161E+01  0.8207198E+00 -0.1617516E+01
  0.2010000E+01  0.1742572E+06 -0.1933404E+01  0.9047462E+00 -0.3006598E+01  0.6049674E+05 -0.2649796E+01  0.1180356E+01 -0.1197339E+00  0.8250202E+05  0.3087302E+01  0.1259973E+01 -0.1321259E+01  0.1194519E+06  0.3551977E+00  0.1376818E+01  0.2148800E+00  0.5813312E+05  0.8842684E+00  0.1605081E+01 -0.3101007E+01  0.1850320E+06 -0.5478598E+00  0.6505587E+00 -0.6582125E+00
  0.2040000E+01  0.1377505E+06 -0.3571833E+00  0.9354030E+00  0.2858355E+01  0.6977896E+05 -0.2692902E+01  0.1121065E+01 -0.3603255E+00  0.1485757E+06  0.7406659E+00  0.1866672E+00 -0.1610043E+01  0.1190495E+06  0.1637790E+01  0.1530269E+01  0.1537466E+01  0.5092548E+05  0.2085506E+01  0.1837321E+01 -0.1878806E+01  0.1770263E+06  0.7203965E+00  0.1053353E+01 -0.3048866E+01
  0.2070000E+01  0.7918103E+05  0.2936152E+01  0.2077868E+01  0.3051263E+01  0.5164425E+05 -0.2636007E+01  0.2850464E+01 -0.4905783E+00  0.1913286E+06  0.2084309E+01  0.3953177E+00  0.1486706E+01  0.1493521E+06  0.2871224E+01  0.2401720E+01  0.2898519E+01  0.4519370E+05 -0.3095531E+01  0.3027284E+01 -0.5945451E+00  0.1988435E+06  0.2123346E+01  0.2216923E+01  0.1757328E+01
  0.2100000E+01  0.1399453E+06 -0.1507284E+01  0.2551490E+01  0.2781703E+01  0.4557709E+05  0.2857310E+01  0.3506839E+01 -0.9259377E+00  0.1805811E+05 -0.2943186E+01  0.1905642E+01  0.1050856E+01  0.1567619E+06 -0.2028258E+01  0.6033398E+01 -0.1924980E+01  0.4367648E+05 -0.2412299E+01  0.7356991E+01  0.8053625E+00  0.1900050E+06 -0.2761149E+01  0.1008229E+01 -0.3620903E-01
  0.2130000E+01  0.5567096E+05  0.8702167E+00  0.2774971E+01 -0.7602156E+00  0.9100407E+05 -0.2421596E+01  0.3757194E+01  0.1821070E+01  0.1708786E+06  0.1449212E+01  0.2139614E+00 -0.2967165E-01  0.1788361E+06 -0.7110811E+00  0.3259434E+01  0.2304306E+01  0.5233164E+05  0.1960097E-01  0.3697659E+01 -0.1227134E+01  0.2040088E+06 -0.1342180E+01  0.2079511E+01  0.4528840E+00
  0.2160000E+01  0.1312309E+06 -0.2649703E+01  0.6522818E+00 -0.3253013E+00  0.4775842E+05 -0.2405530E+01  0.8552934E+00  0.2253428E+01  0.1577045E+06  0.2715471E+01  0.1062444E+01 -0.1268158E+01  0.1982371E+06  0.6673377E+00  0.1060567E+01 -0.2541970E+01  0.3774975E+05  0.1156710E+01  0.1098425E+01  0.2564611E+00  0.2137003E+06  0.1138611E+00  0.6137075E+00  0.1972136E+01
  0.2190000E+01  0.6620354E+05 -0.9219556E+00  0.6966737E+00 -0.9964742E+00  0.4905129E+05 -0.2689308E+01  0.8138515E+00  0.1616860E+01  0.5559238E+05  0.1259153E+01  0.9758176E+00 -0.7161704E+00  0.1944019E+06  0.2015537E+01  0.6710065E+00 -0.9025332E+00  0.3247339E+05  0.2379098E+01  0.6461041E+00  0.2019911E+01  0.2089968E+06  0.1476845E+01  0.1182600E+01  0.1492267E+01
  0.2220000E+01  0.1024451E+06  0.2737300E+01  0.9843706E+00 -0.5864635E+00  0.4075480E+05 -0.2446949E+01  0.1082255E+01  0.2288549E+01  0.1921828E+06  0.2220901E+01  0.2014499E+01 -0.1222522E+01  0.2188726E+06 -0.2934216E+01  0.4532054E+00  0.2280909E+00  0.2826352E+05 -0.2621780E+01  0.4818729E+00 -0.3001809E+01  0.2365609E+06  0.2904793E+01  0.6343323E+00 -0.2087526E+01
  0.2250000E+01  0.1098100E+06 -0.2078127E+01  0.2221311E+00 -0.6749125E+00  0.3241414E+05 -0.2734694E+01  0.1982961E+00  0.2157262E+01  0.8634505E+05 -0.3092651E+01  0.9908260E+00 -0.1175854E+01  0.2210966E+06 -0.1477507E+01  0.2982526E+00  0.1887532E+01  0.2518229E+05 -0.1220999E+01  0.3090763E+00 -0.1399739E+01  0.2308851E+06 -0.1891104E+01  0.6747077E+00 -0.6269640E+00
  0.2280000E+01  0.5162575E+05  0.2288509E+01  0.5414188E+00 -0.9974268E+00  0.3607138E+05 -0.2567921E+01  0.5716571E+00  0.1959313E+01  0.1409987E+06  0.1955281E+01  0.1435770E+01 -0.1021570E+01  0.2273872E+06 -0.1542995E+00  0.2307043E+00 -0.3044346E+01  0.2264719E+05  0.1231018E+00  0.2540534E+00 -0.8466751E-01  0.2474319E+06 -0.5259430E+00  0.6868420E+00  0.5163685E+00
  0.2310000E+01  0.1438259E+06 -0.2751148E+01  0.1834340E+00  0.1982765E+00  0.2384679E+05 -0.2583031E+01  0.1483586E+00 -0.2893022E+01  0.1739331E+06  0.2967885E+01  0.1129221E+01 -0.9211118E+00  0.2473512E+06  0.1325881E+01  0.1715434E+00 -0.1127306E+01  0.1999017E+05  0.1519396E+01  0.1834906E+00  0.1727778E+01  0.2647315E+06  0.1015054E+01  0.4955823E+00  0.2368561E+01
  0.2340000E+01  0.2720629E+05 -0.2579724E+01  0.3941293E+00 -0.8301999E+00  0.2864430E+05 -0.2704374E+01  0.3401405E+00  0.2103030E+01  0.7154562E+05  0.2258002E+01  0.7777548E+00 -0.1890760E+01  0.2349810E+06  0.2736769E+01  0.1104463E+00  0.2874373E+00  0.1700796E+05  0.2927112E+01  0.1203436E+00 -0.3086790E+01  0.2561376E+06  0.2431940E+01  0.3076849E+00 -0.2770516E+01