VARIABLES="w (rad/s)"
"abs(F   1   1)" "angle(F   1   1)"
"abs(F   1   2)" "angle(F   1   2)"
"abs(F   1   3)" "angle(F   1   3)"
"abs(F   1   4)" "angle(F   1   4)"
"abs(F   1   5)" "angle(F   1   5)"
"abs(F   1   6)" "angle(F   1   6)"
"abs(F   2   7)" "angle(F   2   7)"
"abs(F   2   8)" "angle(F   2   8)"
"abs(F   2   9)" "angle(F   2   9)"
"abs(F   2  10)" "angle(F   2  10)"
"abs(F   2  11)" "angle(F   2  11)"
"abs(F   2  12)" "angle(F   2  12)"
Zone t="FKforce - beta =   0.000",I=   500,F=POINT
  0.3000000E-01  0.1050616E+05 -0.1570779E+01  0.2225320E-01  0.5720459E-01  0.9805872E+06  0.8752989E-10  0.7716080E-01  0.1790070E-01  0.1747836E+05 -0.1570797E+01  0.1220721E-01 -0.5468695E-02  0.1050614E+05 -0.1356568E+01  0.3512263E+00  0.3087260E+01  0.9805869E+06  0.2142421E+00  0.4179323E+00  0.5771815E-01  0.1747845E+05 -0.1356573E+01  0.2075195E-02  0.2060754E+01
  0.6000000E-01  0.2101715E+05 -0.1570802E+01  0.1054553E-01  0.2671039E+01  0.9793507E+06  0.4674155E-10  0.7031704E-01 -0.1136561E-01  0.3495545E+05 -0.1570798E+01  0.2687017E-01 -0.3308452E-01  0.2101721E+05 -0.1141901E+01  0.1221175E+00  0.3219086E+00  0.9793506E+06  0.4288774E+00  0.1341819E+00  0.2873665E+01  0.3495613E+05 -0.1141938E+01  0.6445497E-02 -0.2711830E+01
  0.9000000E-01  0.3153784E+05 -0.1570793E+01  0.6768637E-02 -0.9333503E+00  0.9772904E+06 -0.7806682E-11  0.4670851E-01  0.5767076E-01  0.5243049E+05 -0.1570797E+01  0.3271568E-01 -0.7156478E-02  0.3153761E+05 -0.9264786E+00  0.2420724E+00  0.3006542E+01  0.9772896E+06  0.6443033E+00  0.1299693E+00 -0.3449193E+00  0.5243239E+05 -0.9265186E+00  0.1132560E-01 -0.3011890E+01
  0.1200000E+00  0.4207319E+05 -0.1570794E+01  0.2537432E-01  0.2296802E+01  0.9744070E+06  0.6968506E-09  0.1582112E-01  0.1576172E+00  0.6990235E+05 -0.1570796E+01  0.3468082E-01  0.2722698E-01  0.4207343E+05 -0.7098542E+00  0.2917783E+00 -0.2136403E+01  0.9744062E+06  0.8609208E+00  0.8385155E-01  0.1690457E+01  0.6990679E+05 -0.7098937E+00  0.4453810E-01 -0.2662520E+00
  0.1500000E+00  0.5262833E+05 -0.1570791E+01  0.1125768E-01  0.1630318E+00  0.9707021E+06 -0.3175305E-08  0.4504164E-01  0.2920506E+01  0.8736991E+05 -0.1570797E+01  0.3131454E-01 -0.6421214E-01  0.5262862E+05 -0.4916671E+00  0.5697140E-01 -0.2365285E+01  0.9707029E+06  0.1079138E+01  0.2381881E+00  0.1821990E+01  0.8737819E+05 -0.4916604E+00  0.1513672E-01 -0.1570796E+01
  0.1800000E+00  0.6320838E+05 -0.1570794E+01  0.2496461E-01  0.2529931E+00  0.9661799E+06  0.6001304E-09  0.7714765E-02 -0.2946464E+01  0.1048323E+06 -0.1570796E+01  0.1517885E-01 -0.7452152E-01  0.6320874E+05 -0.2714366E+00  0.9351096E-01  0.2224741E+01  0.9661808E+06  0.1299378E+01  0.4584971E-01 -0.2495962E+01  0.1048471E+06 -0.2714259E+00  0.1367405E-01 -0.1552941E+01
  0.2100000E+00  0.7381903E+05 -0.1570795E+01  0.5080050E-02 -0.2721658E+01  0.9608449E+06  0.2223283E-09  0.6838908E-01  0.3112116E+01  0.1222898E+06 -0.1570796E+01  0.4931809E-01 -0.8276420E-02  0.7381897E+05 -0.4872550E-01  0.4248047E-01  0.1571156E+01  0.9608439E+06  0.1522075E+01  0.3129903E+00 -0.1567189E+01  0.1223131E+06 -0.4872058E-01  0.1823430E-01 -0.2668963E+01
  0.2400000E+00  0.8446599E+05 -0.1570803E+01  0.4652248E-01  0.2144977E+01  0.9546974E+06 -0.5593999E-09  0.2388877E-01 -0.2813924E+00  0.1397417E+06 -0.1570798E+01  0.6498131E-02 -0.4471072E+00  0.8446599E+05  0.1768734E+00  0.6964924E-01 -0.2094834E+01  0.9546968E+06  0.1747679E+01  0.7104582E-01 -0.2567648E+01  0.1397769E+06  0.1768767E+00  0.2065407E-01 -0.2566704E+01
  0.2700000E+00  0.9515516E+05 -0.1570792E+01  0.1041555E-01  0.2907651E+01  0.9477444E+06  0.9177063E-09  0.5630300E-01 -0.1507962E+00  0.1571883E+06 -0.1570796E+01  0.1624856E-01 -0.1291307E+00  0.9515515E+05  0.4058616E+00  0.2390784E+00 -0.1920483E+01  0.9477431E+06  0.1976660E+01  0.1570047E+00  0.1787863E+01  0.1572394E+06  0.4058557E+00  0.3188536E-01  0.9211697E+00
  0.3000000E+00  0.1058929E+06 -0.1570794E+01  0.2592960E-01 -0.2003130E+01  0.9399892E+06  0.2434941E-09  0.2083373E-01  0.2964478E+01  0.1746300E+06 -0.1570796E+01  0.3178835E-01  0.5613088E-01  0.1058926E+06  0.6387167E+00  0.8444348E-01 -0.7450109E+00  0.9399896E+06  0.2209509E+01  0.9367686E-01  0.1986639E+01  0.1747000E+06  0.6387087E+00  0.1806641E-01  0.1570796E+01
  0.3300000E+00  0.1166861E+06 -0.1570797E+01  0.3276278E-01  0.1336268E+00  0.9314412E+06 -0.9829147E-10  0.6103830E-01 -0.3131437E+01  0.1920667E+06 -0.1570796E+01  0.2197414E-01 -0.1163142E-01  0.1166861E+06  0.8759495E+00  0.7448970E-01 -0.3056274E+01  0.9314408E+06  0.2446749E+01  0.1528806E+00  0.1125004E+01  0.1921615E+06  0.8759484E+00  0.4784409E-01 -0.1323342E+01
  0.3600000E+00  0.1275418E+06 -0.1570794E+01  0.3110084E-01  0.8714762E+00  0.9221057E+06  0.7611972E-09  0.5685498E-01 -0.8686331E-01  0.2095004E+06 -0.1570797E+01  0.2726786E-01 -0.2577367E+00  0.1275419E+06  0.1118129E+01  0.3481907E+00  0.2734261E+01  0.9221049E+06  0.2688931E+01  0.1467090E+00 -0.7996269E-01  0.2096251E+06  0.1118131E+01  0.7279813E-01 -0.1449769E+01
  0.3900000E+00  0.1384678E+06 -0.1570800E+01  0.2410229E-01  0.1993512E+01  0.9119922E+06 -0.1673127E-09  0.5363633E-01  0.2474971E+00  0.2269329E+06 -0.1570796E+01  0.6076776E-01  0.8528906E-01  0.1384670E+06  0.1365846E+01  0.3369163E-01 -0.1084462E+01  0.9119909E+06  0.2936637E+01  0.3613281E-01 -0.1570796E+01  0.2270941E+06  0.1365837E+01  0.4086202E-01 -0.1924672E+01
  0.4200000E+00  0.1494717E+06 -0.1570799E+01  0.1144759E-01  0.2336607E+01  0.9011094E+06 -0.8805335E-09  0.1611153E-01  0.2430514E+01  0.2443669E+06 -0.1570796E+01  0.2775349E-02  0.2645976E+01  0.1494710E+06  0.1619691E+01  0.1184401E-02 -0.9041035E+00  0.9011074E+06 -0.3092700E+01  0.2202991E-01 -0.2975988E+01  0.2445701E+06  0.1619687E+01  0.1003727E-01 -0.2908413E+01
  0.4500000E+00  0.1605624E+06 -0.1570791E+01  0.3409281E-01 -0.2640857E+01  0.8894689E+06  0.1475325E-08  0.1557641E-01  0.2189437E+01  0.2618027E+06 -0.1570796E+01  0.1083416E-01 -0.2812827E+01  0.1605610E+06  0.1880337E+01  0.1014671E+00 -0.8668351E+00  0.8894661E+06 -0.2832049E+01  0.2570941E+00 -0.3277565E+00  0.2620568E+06  0.1880339E+01  0.7435034E-01 -0.2244512E+01
  0.4800000E+00  0.1717477E+06 -0.1570795E+01  0.1810713E-01  0.2730919E+01  0.8770825E+06 -0.5567107E-09  0.2100639E-01  0.2279491E+01  0.2792444E+06 -0.1570796E+01  0.1402248E-01  0.4385829E+00  0.1717463E+06  0.2148498E+01  0.1121432E+00 -0.2323061E+00  0.8770803E+06 -0.2563894E+01  0.4109982E-01  0.1986608E+01  0.2795573E+06  0.2148490E+01  0.5232190E-01  0.2774084E+01
  0.5100000E+00  0.1830380E+06 -0.1570797E+01  0.1792211E-01 -0.1932834E+01  0.8639663E+06  0.1165647E-08  0.7055793E-01  0.2937379E+01  0.2966951E+06 -0.1570796E+01  0.1096844E-01  0.2034660E+00  0.1830358E+06  0.2424911E+01  0.7956176E-01 -0.1644509E+01  0.8639624E+06 -0.2287478E+01  0.1232603E+00  0.2356194E+01  0.2970783E+06  0.2424908E+01  0.4106210E-01  0.1128422E+01
  0.5400000E+00  0.1944414E+06 -0.1570798E+01  0.2980868E-01 -0.2753146E+01  0.8501348E+06 -0.1076920E-08  0.1924092E-01 -0.1193972E+01  0.3141576E+06 -0.1570796E+01  0.1706565E-01  0.2727749E+01  0.1944388E+06  0.2710381E+01  0.7317637E-01 -0.1610008E+01  0.8501298E+06 -0.2002010E+01  0.1420615E+00 -0.1368345E+01  0.3146221E+06  0.2710377E+01  0.2556375E-01  0.1072974E+01
  0.5699999E+00  0.2059681E+06 -0.1570797E+01  0.5717235E-01  0.2243953E+01  0.8356073E+06  0.2519979E-08  0.6280031E-01 -0.8642322E+00  0.3316353E+06 -0.1570796E+01  0.1010820E-01  0.2880504E+01  0.2059651E+06  0.3005765E+01  0.6051549E-01 -0.2371885E+01  0.8355999E+06 -0.1706625E+01  0.3169247E-01  0.2634868E+01  0.3321945E+06  0.3005762E+01  0.8550361E-01  0.2899384E+01
  0.6000000E+00  0.2176267E+06 -0.1570795E+01  0.1708531E-01  0.2144804E+01  0.8204033E+06 -0.6063317E-08  0.8367647E-01 -0.3075921E+01  0.3491334E+06 -0.1570796E+01  0.1346401E-01 -0.1388459E+01  0.2176224E+06 -0.2971229E+01  0.1280146E+00 -0.1726559E+01  0.8203949E+06 -0.1400433E+01  0.7095914E-01 -0.1326235E+01  0.3497982E+06 -0.2971231E+01  0.3582551E-01  0.1315901E+01
  0.6299999E+00  0.2294263E+06 -0.1570797E+01  0.2924821E-01 -0.5277646E+00  0.8045476E+06 -0.1441391E-08  0.1011623E+00  0.2980560E+01  0.3666520E+06 -0.1570796E+01  0.1853636E-01  0.2624540E+01  0.2294215E+06 -0.2653268E+01  0.1771850E+00  0.9696090E+00  0.8045374E+06 -0.1082471E+01  0.1662530E+00  0.8711695E+00  0.3674412E+06 -0.2653268E+01  0.1897752E-01  0.7726523E-01
  0.6600000E+00  0.2413755E+06 -0.1570797E+01  0.1031569E-01 -0.3280361E+00  0.7880662E+06  0.2555826E-08  0.8077030E-01 -0.1884213E+01  0.3841917E+06 -0.1570796E+01  0.3452670E-02  0.2356194E+01  0.2413685E+06 -0.2322524E+01  0.1058572E+00 -0.1786964E+01  0.7880524E+06 -0.7517279E+00  0.2673451E-01  0.1474762E+01  0.3851218E+06 -0.2322524E+01  0.1670272E+00  0.1550331E+01
  0.6899999E+00  0.2534800E+06 -0.1570798E+01  0.2337899E-01  0.1775864E+01  0.7709864E+06 -0.3404096E-08  0.1666619E-01  0.7488932E+00  0.4017561E+06 -0.1570796E+01  0.3985703E-01 -0.6291059E+00  0.2534713E+06 -0.1977950E+01  0.5737941E-01 -0.2045861E+01  0.7709707E+06 -0.4071545E+00  0.9583320E-01 -0.2138307E+01  0.4028466E+06 -0.1977954E+01  0.8451781E-01  0.1122651E+01
  0.7200000E+00  0.2657450E+06 -0.1570796E+01  0.1967490E-01 -0.1274892E+01  0.7533440E+06 -0.2430569E-08  0.2463700E-01  0.9705544E+00  0.4193413E+06 -0.1570797E+01  0.1986676E-01  0.2296418E+01  0.2657344E+06 -0.1618472E+01  0.4123127E-01 -0.3039273E+01  0.7533238E+06 -0.4767403E-01  0.1836523E+00 -0.2526058E-01  0.4206155E+06 -0.1618472E+01  0.1012689E+00 -0.1706216E+01
  0.7499999E+00  0.2781735E+06 -0.1570796E+01  0.2524040E-01 -0.1483632E+01  0.7351726E+06 -0.5977550E-08  0.1969072E-01  0.1496335E+01  0.4369427E+06 -0.1570797E+01  0.2734641E-01 -0.1394999E-01  0.2781597E+06 -0.1242955E+01  0.2480296E+00  0.3024731E+01  0.7351469E+06  0.3278389E+00  0.1372894E+00  0.2915296E+01  0.4384248E+06 -0.1242960E+01  0.1498435E-01  0.2646289E+01
  0.7800000E+00  0.2907638E+06 -0.1570796E+01  0.2781211E-01 -0.1544459E+01  0.7165114E+06  0.6814703E-09  0.9550787E-02  0.1312304E+01  0.4545506E+06 -0.1570796E+01  0.6727193E-01 -0.1605994E+00  0.2907466E+06 -0.8502965E+00  0.1600770E+00  0.2926025E+01  0.7164811E+06  0.7204994E+00  0.1356974E+00 -0.1759018E+01  0.4562712E+06 -0.8502992E+00  0.6759698E-01  0.2409851E+01
  0.8100000E+00  0.3035108E+06 -0.1570796E+01  0.2750002E-01 -0.2771165E+01  0.6974058E+06  0.1032706E-07  0.5956822E-01  0.7826586E+00  0.4721525E+06 -0.1570796E+01  0.2077885E-01  0.1856661E+01  0.3034882E+06 -0.4393850E+00  0.2026588E-01  0.4286215E+00  0.6973682E+06  0.1131413E+01  0.3595587E-01 -0.6114816E-01  0.4741407E+06 -0.4393832E+00  0.1036411E+00  0.2964207E+00
  0.8400000E+00  0.3164034E+06 -0.1570796E+01  0.6731119E-02 -0.1160398E+01  0.6778990E+06  0.3331323E-08  0.4772935E-01  0.1898903E+01  0.4897272E+06 -0.1570796E+01  0.2038012E-01 -0.2715120E+01  0.3163758E+06 -0.9118172E-02  0.1176763E+00 -0.1573908E+01  0.6778539E+06  0.1561679E+01  0.4553403E-01 -0.1765037E+01  0.4920186E+06 -0.9118194E-02  0.1459381E+00 -0.2942885E+01
  0.8700000E+00  0.3294253E+06 -0.1570797E+01  0.3951052E-02  0.1601697E+01  0.6580428E+06 -0.8162226E-08  0.2368941E-01  0.3115986E+01  0.5072520E+06 -0.1570797E+01  0.8047177E-01 -0.3042641E+01  0.3293892E+06  0.4415039E+00  0.4864397E-01  0.1831752E+01  0.6579881E+06  0.2012299E+01  0.1693267E+00 -0.1332724E+01  0.5098826E+06  0.4415026E+00  0.4583086E-01 -0.6797326E+00
  0.9000000E+00  0.3425518E+06 -0.1570796E+01  0.9249372E-01 -0.1540437E+01  0.6378894E+06 -0.1722293E-08  0.6746418E-01  0.1363032E+01  0.5246874E+06 -0.1570797E+01  0.3037620E-01 -0.1814313E+01  0.3425065E+06  0.9134180E+00  0.2920218E-01 -0.2990532E+01  0.6378224E+06  0.2484214E+01  0.1106261E+00  0.1435766E+01  0.5276991E+06  0.9134180E+00  0.4160789E-01 -0.1128143E+01
  0.9300000E+00  0.3557505E+06 -0.1570796E+01  0.5341853E-01 -0.1208737E+01  0.6174909E+06  0.1344276E-07  0.2116139E-01  0.1250705E+00  0.5419923E+06 -0.1570796E+01  0.3891244E-01  0.1319426E+00  0.3556926E+06  0.1407447E+01  0.9256826E-01 -0.3112577E+01  0.6174109E+06  0.2978242E+01  0.4044932E-01  0.7341610E+00  0.5454337E+06  0.1407444E+01  0.7763672E-01 -0.1570796E+01
  0.9600000E+00  0.3689813E+06 -0.1570796E+01  0.2594027E-01  0.2646635E+01  0.5969052E+06  0.1840548E-08  0.6633637E-01 -0.2082296E+01  0.5591124E+06 -0.1570796E+01  0.4981920E-01  0.1997982E+00  0.3689085E+06  0.1924249E+01  0.1409493E+00  0.2770354E+01  0.5968081E+06 -0.2788140E+01  0.6448549E-01 -0.2913661E+00  0.5630299E+06  0.1924250E+01  0.4526291E-01  0.3524576E+00
  0.9900000E+00  0.3821942E+06 -0.1570796E+01  0.5816059E-01 -0.1797305E+01  0.5761885E+06  0.2118583E-08  0.2263195E-01  0.2332832E+01  0.5759868E+06 -0.1570796E+01  0.9058745E-01 -0.3066481E+01  0.3821023E+06  0.2464350E+01  0.2863974E-01 -0.8547730E+00  0.5760716E+06 -0.2248039E+01  0.1028395E+00 -0.1391792E+01  0.5804339E+06  0.2464349E+01  0.5715446E-01 -0.2990561E-01
  0.1020000E+01  0.3953317E+06 -0.1570796E+01  0.2344345E-01 -0.2851055E+01  0.5553948E+06  0.5604649E-08  0.4248394E-01  0.1249216E+01  0.5925406E+06 -0.1570796E+01  0.3711057E-01  0.8017920E-02  0.3952158E+06  0.3028075E+01  0.2062357E+00  0.1490211E+01  0.5552557E+06 -0.1684315E+01  0.2818212E-01  0.3054854E+01  0.5975752E+06  0.3028073E+01  0.8302074E-01  0.3123947E+01
  0.1050000E+01  0.4083278E+06 -0.1570796E+01  0.7181357E-01 -0.1695204E+01  0.5345811E+06  0.2249224E-07  0.6891258E-01  0.1581425E+01  0.6086986E+06 -0.1570796E+01  0.1424880E-02 -0.2325901E+01  0.4081821E+06 -0.2667592E+01  0.2252803E+00  0.1039397E+01  0.5344151E+06 -0.1096795E+01  0.2451304E-01  0.2827716E+01  0.6143778E+06 -0.2667592E+01  0.1734502E+00  0.5477821E+00
  0.1080000E+01  0.4211118E+06 -0.1570796E+01  0.2792075E-01 -0.3061855E+01  0.5137985E+06 -0.3563760E-08  0.1163940E+00 -0.1368047E+01  0.6243723E+06 -0.1570797E+01  0.1779363E-01 -0.1820351E+01  0.4209275E+06 -0.2056273E+01  0.2314124E+00 -0.2850540E+01  0.5136013E+06 -0.4854763E+00  0.1125872E+00 -0.1969424E+01  0.6307598E+06 -0.2056273E+01  0.1150366E+00 -0.3150392E+00
  0.1110000E+01  0.4336042E+06 -0.1570796E+01  0.3535731E-01  0.1719804E+01  0.4930968E+06 -0.2228027E-08  0.3386354E-01 -0.1131433E+01  0.6394733E+06 -0.1570796E+01  0.1496166E+00 -0.5203632E-01  0.4333744E+06 -0.1421311E+01  0.1567451E-01 -0.2488746E+01  0.4928643E+06  0.1494864E+00  0.5562657E-01 -0.2518282E+01  0.6466295E+06 -0.1421311E+01  0.5147374E-01  0.7518537E+00
  0.1140000E+01  0.4457267E+06 -0.1570796E+01  0.3473182E-01 -0.1634102E+01  0.4725267E+06 -0.5425040E-08  0.1396734E+00 -0.1261759E+01  0.6539099E+06 -0.1570796E+01  0.2494353E+00  0.3084119E+01  0.4454388E+06 -0.7630064E+00  0.1442243E+00 -0.1828400E+01  0.4722528E+06  0.8077884E+00  0.1487011E+00 -0.1478724E+01  0.6618962E+06 -0.7630070E+00  0.2525676E-01  0.1376244E+01
  0.1170000E+01  0.4573964E+06 -0.1570796E+01  0.8081754E-01 -0.1526979E+01  0.4521305E+06 -0.7424700E-08  0.1419815E+00  0.1382253E+01  0.6675880E+06 -0.1570796E+01  0.4309860E-01 -0.3471678E+00  0.4570383E+06 -0.8172888E-01  0.2270044E+00 -0.1641299E+01  0.4518091E+06  0.1489068E+01  0.5965480E-01  0.9805236E+00  0.6764648E+06 -0.8172902E-01  0.1821184E+00 -0.3069139E+01
  0.1200000E+01  0.4685310E+06 -0.1570796E+01  0.8377152E-02 -0.1806111E+01  0.4319498E+06  0.8336789E-08  0.2700382E-01  0.1048695E+00  0.6804145E+06 -0.1570796E+01  0.1167092E+00 -0.9243541E-01  0.4680880E+06  0.6220723E+00  0.6845881E-01  0.4580655E+00  0.4315751E+06  0.2192869E+01  0.1474010E+00 -0.1944882E+01  0.6902469E+06  0.6220743E+00  0.1272093E+00 -0.2324298E+01
  0.1230000E+01  0.4790517E+06 -0.1570797E+01  0.2900065E-01 -0.2014560E+01  0.4120229E+06  0.9628796E-08  0.1898384E-01 -0.1074882E+01  0.6923086E+06 -0.1570796E+01  0.1607371E-01  0.2387749E+01  0.4785038E+06  0.1347955E+01  0.1433274E-01 -0.6281701E+00  0.4115872E+06  0.2918749E+01  0.6855310E-01 -0.7627320E+00  0.7031532E+06  0.1347953E+01  0.6013001E-01 -0.5947593E+00
  0.1260000E+01  0.4888802E+06 -0.1570796E+01  0.1749804E-02  0.2925170E+01  0.3923868E+06 -0.3375401E-07  0.2805812E-01  0.2079757E+01  0.7031878E+06 -0.1570796E+01  0.1891207E+00 -0.3100998E+01  0.4882060E+06  0.2095381E+01  0.6514233E-01  0.2862521E+01  0.3918825E+06 -0.2617007E+01  0.7884025E-01  0.2242635E+01  0.7150961E+06  0.2095381E+01  0.1001274E+00 -0.1595182E+01
  0.1290000E+01  0.4979437E+06 -0.1570796E+01  0.3939297E-02 -0.2687473E+01  0.3730724E+06 -0.5726049E-08  0.2313764E+00  0.1454466E+01  0.7129779E+06 -0.1570796E+01  0.1788278E+00  0.3030954E+01  0.4971174E+06  0.2863942E+01  0.1368704E+00 -0.1970184E+01  0.3724920E+06 -0.1848447E+01  0.2128929E+00  0.1566209E+01  0.7259914E+06  0.2863941E+01  0.1182974E+00 -0.4748494E-01
  0.1320000E+01  0.5061752E+06 -0.1570796E+01  0.9008260E-01  0.1836811E+01  0.3541120E+06 -0.2068334E-08  0.6323789E-01  0.1439154E+01  0.7216082E+06 -0.1570796E+01  0.8290116E-01  0.2996598E+01  0.5051678E+06 -0.2630005E+01  0.8942223E-01 -0.1472350E+01  0.3534468E+06 -0.1059207E+01  0.6285056E-01 -0.6267971E+00  0.7357697E+06 -0.2630003E+01  0.6984513E-01  0.1595267E+01
  0.1350000E+01  0.5135097E+06 -0.1570796E+01  0.3223550E-01  0.1259038E+01  0.3355352E+06  0.1655325E-07  0.1282574E+00  0.1223103E+01  0.7290216E+06 -0.1570796E+01  0.2959358E+00 -0.1588150E-01  0.5122845E+06 -0.1820529E+01  0.9965770E-01 -0.2097673E+00  0.3347766E+06 -0.2497325E+00  0.2762136E-02  0.7853982E+00  0.7443631E+06 -0.1820530E+01  0.1992188E+00  0.1570796E+01
  0.1380000E+01  0.5198911E+06 -0.1570796E+01  0.2682246E-01  0.1895020E+01  0.3173672E+06 -0.9231223E-08  0.1238799E+00  0.1681386E+01  0.7351693E+06 -0.1570796E+01  0.1315534E+00 -0.3085657E+01  0.5184110E+06 -0.9911249E+00  0.6156850E-01 -0.2959168E+01  0.3165060E+06  0.5796721E+00  0.1307619E+00  0.9258016E+00  0.7517079E+06 -0.9911266E+00  0.1376462E+00 -0.2385045E+01
  0.1410000E+01  0.5252698E+06 -0.1570796E+01  0.9779647E-01  0.1611999E+01  0.2996353E+06 -0.8147927E-09  0.9416322E-01  0.1240744E+01  0.7400031E+06 -0.1570796E+01  0.7197347E-01  0.2960829E+01  0.5234867E+06 -0.1421405E+00  0.7220725E-01  0.1447070E+01  0.2986624E+06  0.1428655E+01  0.2257508E+00  0.1590264E+01  0.7577449E+06 -0.1421417E+00  0.2903529E-01  0.3430239E+00
  0.1440000E+01  0.5295988E+06 -0.1570796E+01  0.1113501E+00  0.1519249E+01  0.2823608E+06  0.6484804E-08  0.1016872E+00  0.1577999E+01  0.7434892E+06 -0.1570796E+01  0.2349440E+00 -0.6961389E-01  0.5274628E+06  0.7262304E+00  0.7155263E-01  0.3664083E+00  0.2812672E+06  0.2297028E+01  0.1420743E+00 -0.1908850E+01  0.7624281E+06  0.7262314E+00  0.1702991E+00  0.1736416E+01
  0.1470000E+01  0.5328410E+06 -0.1570796E+01  0.3272876E-01 -0.1762180E+01  0.2655675E+06 -0.5745728E-08  0.7362898E-01 -0.7724290E+00  0.7456006E+06 -0.1570796E+01  0.1696787E+00  0.1200718E+00  0.5302918E+06  0.1613700E+01  0.1465301E-01  0.2499479E-01  0.2643432E+06 -0.3098689E+01  0.2620139E+00 -0.3105245E+01  0.7657179E+06  0.1613700E+01  0.1720109E-01  0.1684588E+01
  0.1500000E+01  0.5349628E+06 -0.1570796E+01  0.2965772E-01  0.1837364E+01  0.2492735E+06 -0.8324972E-08  0.1402473E+00  0.2052229E+01  0.7463131E+06 -0.1570796E+01  0.1795118E+00 -0.9449235E-01  0.5319334E+06  0.2520172E+01  0.9462214E-01 -0.1817105E+01  0.2479088E+06 -0.2192215E+01  0.3889812E-01  0.1022842E+01  0.7675686E+06  0.2520174E+01  0.1776348E+00 -0.5454872E+00
  0.1530000E+01  0.5359373E+06 -0.1570796E+01  0.1021618E+00 -0.1457038E+01  0.2334988E+06 -0.7580423E-08  0.2080691E-01 -0.2154934E+01  0.7456125E+06 -0.1570796E+01  0.1015890E+00  0.2283257E-01  0.5323530E+06 -0.2837761E+01  0.7424976E-01  0.1427272E+01  0.2319852E+06 -0.1266966E+01  0.1834083E+00 -0.1596091E+01  0.7679504E+06 -0.2837762E+01  0.2595250E-01 -0.2084652E+00
  0.1560000E+01  0.5357450E+06 -0.1570796E+01  0.5522401E-01  0.1440007E+01  0.2182580E+06 -0.2376998E-07  0.1295940E+00  0.1230838E+01  0.7434921E+06 -0.1570796E+01  0.5532442E+00  0.8825896E-02  0.5315217E+06 -0.1893763E+01  0.2138095E-01 -0.1612558E+01  0.2165858E+06 -0.3229666E+00  0.1360621E+00  0.2774540E+01  0.7668400E+06 -0.1893762E+01  0.1863548E+00 -0.1663947E+01
  0.1590000E+01  0.5343714E+06 -0.1570796E+01  0.9962175E-01  0.1484917E+01  0.2035672E+06 -0.7495703E-08  0.1593030E-01  0.2014310E+01  0.7399465E+06 -0.1570796E+01  0.1725323E-01  0.2533475E+01  0.5294163E+06 -0.9311975E+00  0.1184312E+00  0.2821798E+01  0.2017280E+06  0.6395979E+00  0.5153450E-01 -0.1542368E+01  0.7642042E+06 -0.9311973E+00  0.6084933E-01 -0.1269348E+01
  0.1620000E+01  0.5318089E+06 -0.1570796E+01  0.9866086E-01  0.1625263E+01  0.1894367E+06 -0.3866315E-08  0.7151694E-01 -0.1529820E+01  0.7349820E+06 -0.1570796E+01  0.2716276E+00  0.3109118E+01  0.5260172E+06  0.4995374E-01  0.5190415E-01 -0.1601375E+01  0.1874224E+06  0.1620750E+01  0.2125742E-01 -0.1327210E+01  0.7600323E+06  0.4995359E-01  0.1999339E+00  0.3093951E+01
  0.1650000E+01  0.5280552E+06 -0.1570796E+01  0.1545662E+00 -0.1521812E+01  0.1758781E+06  0.1110499E-07  0.1119995E+00  0.1570796E+01  0.7286056E+06 -0.1570796E+01  0.1973648E+00 -0.3170348E-01  0.5213130E+06  0.1049575E+01  0.1792149E-01  0.2589491E+01  0.1736809E+06  0.2620371E+01  0.7123051E-01  0.1680696E+01  0.7543062E+06  0.1049573E+01  0.2149132E+00 -0.1451232E+01
  0.1680000E+01  0.5231156E+06 -0.1570797E+01  0.1265760E+00  0.1606487E+01  0.1628982E+06  0.1498732E-07  0.3607022E-01  0.1733963E+01  0.7208358E+06 -0.1570796E+01  0.2737670E-01  0.3092525E+01  0.5152969E+06  0.2067682E+01  0.1090389E+00  0.2351190E-01  0.1605115E+06 -0.2644707E+01  0.2978516E-01  0.0000000E+00  0.7470164E+06  0.2067681E+01  0.1266005E+00 -0.4629894E-01
  0.1710000E+01  0.5170007E+06 -0.1570796E+01  0.9744293E-01  0.1568291E+01  0.1505034E+06  0.3710692E-07  0.1156383E-01  0.2434183E+01  0.7116902E+06 -0.1570796E+01  0.3496267E+00  0.3131642E+01  0.5079689E+06  0.3104173E+01  0.8127778E-01 -0.1510684E+01  0.1479218E+06 -0.1608216E+01  0.5769860E-01 -0.1715162E+01  0.7381579E+06  0.3104173E+01  0.1889511E-01  0.1901103E+00
  0.1740000E+01  0.5097284E+06 -0.1570796E+01  0.8787923E-01  0.1529112E+01  0.1386959E+06 -0.1584232E-07  0.5600345E-01 -0.1853550E+01  0.7011918E+06 -0.1570796E+01  0.1201522E+00 -0.2413149E-01  0.4993320E+06 -0.2124073E+01  0.5081205E-01  0.2451468E+01  0.1359138E+06 -0.5532766E+00  0.3760479E-01  0.1590274E+01  0.7277262E+06 -0.2124072E+01  0.1709907E+00  0.1537951E+01
  0.1770000E+01  0.5013222E+06 -0.1570796E+01  0.8595577E-02  0.2140827E+01  0.1274779E+06  0.3088196E-07  0.4277276E-01  0.1754479E+01  0.6893760E+06 -0.1570796E+01  0.1093753E+00 -0.3139360E+01  0.4893997E+06 -0.1050793E+01  0.5508581E-01  0.2667539E+01  0.1244921E+06  0.5200042E+00  0.8788799E-01 -0.1393435E+00  0.7157272E+06 -0.1050793E+01  0.6056902E-01 -0.1186547E+01
  0.1800000E+01  0.4918126E+06 -0.1570796E+01  0.3021119E-01 -0.1627394E+01  0.1168472E+06  0.9924656E-08  0.2811231E-01  0.1002215E+01  0.6762728E+06 -0.1570796E+01  0.3042767E+00 -0.2256840E-01  0.4781867E+06  0.4089619E-01  0.1839396E-01  0.1643862E+01  0.1136548E+06  0.1611693E+01  0.9770392E-02  0.1318242E+01  0.7021641E+06  0.4089607E-01  0.8892716E-01 -0.3672798E-01
  0.1830000E+01  0.4812344E+06 -0.1570796E+01  0.6530267E-01 -0.1524047E+01  0.1068002E+06 -0.1100117E-07  0.2292131E+00  0.1634747E+01  0.6619273E+06 -0.1570796E+01  0.3257478E+00 -0.3121730E+01  0.4657180E+06  0.1150986E+01  0.4624596E-01 -0.2607058E+01  0.1034001E+06  0.2721781E+01  0.1511505E-01  0.2598403E+01  0.6870484E+06  0.1150985E+01  0.1271785E+00 -0.1630341E+01
  0.1860000E+01  0.4696323E+06 -0.1570796E+01  0.5272181E-01 -0.1547641E+01  0.9733200E+05  0.3887909E-07  0.2843309E-01  0.1725975E+01  0.6463842E+06 -0.1570796E+01  0.3639290E+00  0.3111987E+01  0.4520217E+06  0.2279367E+01  0.3992170E-01 -0.2352951E+01  0.9372432E+05 -0.2433022E+01  0.3992054E-01 -0.3043442E+00  0.6703994E+06  0.2279367E+01  0.3876194E+00  0.2251341E+01
  0.1890000E+01  0.4570536E+06 -0.1570796E+01  0.5785357E-02 -0.1379737E+01  0.8843373E+05 -0.4296368E-07  0.4064851E-01  0.1401821E+01  0.6296931E+06 -0.1570796E+01  0.1348608E+00 -0.3104020E+01  0.4371343E+06 -0.2857034E+01  0.1677745E-01 -0.1650916E+01  0.8462012E+05 -0.1286237E+01  0.5472292E-01  0.1521701E+01  0.6522338E+06 -0.2857034E+01  0.2291099E+00  0.2912897E+01
  0.1920000E+01  0.4435536E+06 -0.1570796E+01  0.2323058E-01 -0.1555032E+01  0.8009623E+05 -0.4114923E-07  0.1397686E-01 -0.1710995E+01  0.6119119E+06 -0.1570796E+01  0.3581363E+00 -0.3106052E+01  0.4210968E+06 -0.1691892E+01  0.4717686E-01 -0.1010847E+00  0.7608000E+05 -0.1210952E+00  0.3006996E-01 -0.4091561E+00  0.6325811E+06 -0.1691892E+01  0.4009336E-01  0.1343541E+01
  0.1950000E+01  0.4291916E+06 -0.1570796E+01  0.7993317E-01  0.1616627E+01  0.7230761E+05  0.9496172E-09  0.9784657E-01 -0.1490867E+01  0.5930994E+06 -0.1570796E+01  0.1695216E+00 -0.3222947E-01  0.4039572E+06 -0.5084023E+00  0.7799137E-02  0.6967423E+00  0.6809314E+05  0.1062394E+01  0.1074496E-01 -0.1548073E+01  0.6114721E+06 -0.5084012E+00  0.8996706E-01  0.2521974E+01
  0.1980000E+01  0.4140354E+06 -0.1570796E+01  0.3202783E-01 -0.1540300E+01  0.6505440E+05 -0.3107844E-07  0.9552033E-01 -0.1568240E+01  0.5733246E+06 -0.1570796E+01  0.2378308E+00  0.3123756E+01  0.3857702E+06  0.6934258E+00  0.1752421E-01  0.8001754E+00  0.6064829E+05  0.2264223E+01  0.2490025E-01  0.1669002E+01  0.5889436E+06  0.6934265E+00  0.2004121E+00  0.2457149E+01
  0.2010000E+01  0.3981549E+06 -0.1570796E+01  0.3166778E-02 -0.1089909E+01  0.5832145E+05 -0.3532039E-08  0.4031029E-01  0.1546568E+01  0.5526565E+06 -0.1570796E+01  0.4116211E+00  0.3141370E+01  0.3665955E+06  0.1913602E+01  0.2115104E-01  0.2725712E+01  0.5373157E+05 -0.2798787E+01  0.2914184E-01 -0.1513754E+00  0.5650400E+06  0.1913602E+01  0.2287039E+00 -0.1647732E+01
  0.2040000E+01  0.3816259E+06 -0.1570796E+01  0.3916950E-01  0.1567680E+01  0.5209208E+05 -0.4012998E-07  0.2781784E-01  0.1562020E+01  0.5311728E+06 -0.1570796E+01  0.4902363E+00 -0.2801287E-02  0.3464982E+06 -0.3131054E+01  0.9615701E-02  0.1430695E+01  0.4732788E+05 -0.1560259E+01  0.6596317E-02  0.8902751E+00  0.5398141E+06 -0.3131054E+01  0.5134214E-01 -0.2993643E+01
  0.2070000E+01  0.3645284E+06 -0.1570796E+01  0.2639459E-01 -0.1589297E+01  0.4634835E+05 -0.3028821E-07  0.1656501E+00  0.1573744E+01  0.5089554E+06 -0.1570796E+01  0.1123110E+00 -0.1059743E-01  0.3255500E+06 -0.1874156E+01  0.8642889E-02 -0.6350268E+00  0.4142087E+05 -0.3033600E+00  0.2526000E-01  0.2569674E+01  0.5133179E+06 -0.1874156E+01  0.1177092E+00 -0.1120135E+01
  0.2100000E+01  0.3469475E+06 -0.1570796E+01  0.1565788E+00  0.1573915E+01  0.4107117E+05 -0.4996953E-07  0.9648588E-02  0.1723205E+01  0.4860914E+06 -0.1570796E+01  0.2485352E+00 -0.3140979E+01  0.3038278E+06 -0.5989144E+00  0.3076929E-01 -0.1085856E+01  0.3599311E+05  0.9718837E+00  0.2110969E-01 -0.2737460E+01  0.4856199E+06 -0.5989117E+00  0.7380965E-01 -0.9736196E+00
  0.2130000E+01  0.3289721E+06 -0.1570796E+01  0.3331958E-01  0.1559805E+01  0.3624097E+05 -0.9012823E-08  0.1076135E+00  0.1613915E+01  0.4626726E+06 -0.1570796E+01  0.6592871E-01  0.1805359E-01  0.2814181E+06  0.6945735E+00  0.1677659E-01  0.1702146E+01  0.3102616E+05  0.2265370E+01  0.9702202E-02  0.1290336E+01  0.4567918E+06  0.6945745E+00  0.6045331E-01  0.1968927E+01
  0.2160000E+01  0.3106908E+06 -0.1570796E+01  0.4637573E-01 -0.1605022E+01  0.3183596E+05 -0.1138323E-07  0.4188202E-01  0.1623284E+01  0.4387927E+06 -0.1570796E+01  0.7664470E-02  0.2842508E+01  0.2584034E+06  0.2006507E+01  0.1962031E-01 -0.4163292E+00  0.2649980E+05 -0.2705881E+01  0.6592080E-02  0.1580055E+01  0.4269107E+06  0.2006508E+01  0.6463966E-01  0.2404286E+01
  0.2190000E+01  0.2921985E+06 -0.1570796E+01  0.1510012E+00  0.1569180E+01  0.2783516E+05  0.1130630E-07  0.6577585E-01 -0.1626501E+01  0.4145553E+06 -0.1570796E+01  0.2480937E+00  0.1943653E-01  0.2348781E+06 -0.2946420E+01  0.1095730E-01  0.1402900E+01  0.2239415E+05 -0.1375624E+01  0.1949460E-01 -0.1185639E+01  0.3960647E+06 -0.2946421E+01  0.2656537E-01  0.2984989E+00
  0.2220000E+01  0.2735891E+06 -0.1570796E+01  0.2627059E-01 -0.1598680E+01  0.2421648E+05 -0.1890298E-08  0.2449457E-01 -0.1530917E+01  0.3900619E+06 -0.1570796E+01  0.6313661E+00 -0.3133955E+01  0.2109390E+06 -0.1597795E+01  0.3195848E-01  0.7838314E-01  0.1868813E+05 -0.2699927E-01  0.3320672E-02  0.1272297E+01  0.3643483E+06 -0.1597794E+01  0.9135558E-01  0.1538722E+01
  0.2250000E+01  0.2549598E+06 -0.1570796E+01  0.1147559E-01 -0.1624008E+01  0.2095754E+05 -0.4004446E-07  0.6189013E-01  0.1566852E+01  0.3654217E+06 -0.1570796E+01  0.2651370E+00 -0.1381215E-02  0.1866866E+06 -0.2307974E+00  0.1969006E-01  0.1802242E+01  0.1536033E+05  0.1339999E+01  0.6966569E-02 -0.1764755E+01  0.3318656E+06 -0.2307960E+00  0.4592181E-01  0.7929168E+00
  0.2280000E+01  0.2364083E+06 -0.1570796E+01  0.4328014E-01 -0.1607471E+01  0.1803607E+05 -0.9031214E-07  0.9006583E-01  0.1527412E+01  0.3407489E+06 -0.1570796E+01  0.2349663E+00  0.2961712E-01  0.1622282E+06  0.1154493E+01  0.8193273E-02 -0.2001123E+01  0.1238928E+05  0.2725288E+01  0.7666414E-02 -0.2440738E+01  0.2987287E+06  0.1154492E+01  0.6183666E-01  0.1452073E+01
  0.2310000E+01  0.2180292E+06 -0.1570796E+01  0.6155407E-01 -0.1572779E+01  0.1542950E+05  0.1730638E-07  0.4864132E-01  0.1676396E+01  0.3161547E+06 -0.1570796E+01  0.7032418E-01 -0.3123365E+01  0.1376675E+06  0.2558158E+01  0.1232914E-01  0.1568321E+01  0.9752919E+04 -0.2154231E+01  0.2191632E-01 -0.1321765E+01  0.2650551E+06  0.2558156E+01  0.1093004E+00  0.1836363E+01
  0.2340000E+01  0.1999185E+06 -0.1570796E+01  0.1574365E-01 -0.1532019E+01  0.1311559E+05  0.7474899E-07  0.6926547E-01  0.1546121E+01  0.2917546E+06 -0.1570796E+01  0.2209644E+00  0.4863419E-01  0.1131183E+06 -0.2302998E+01  0.4864851E-02 -0.1983925E+01  0.7429447E+04 -0.7322019E+00  0.9600191E-02 -0.8483778E+00  0.2309746E+06 -0.2303000E+01  0.1326472E+00 -0.2387434E+01