VARIABLES="w (rad/s)"
"A   1   1" "B   1   1"
"A   1   2" "B   1   2"
"A   1   3" "B   1   3"
"A   1   4" "B   1   4"
"A   1   5" "B   1   5"
"A   1   6" "B   1   6"
"A   2   1" "B   2   1"
"A   2   2" "B   2   2"
"A   2   3" "B   2   3"
"A   2   4" "B   2   4"
"A   2   5" "B   2   5"
"A   2   6" "B   2   6"
Zone t="Motion of body    1 in DoF   1",I=   500,F=POINT
  0.3000000E-01  0.3230561E+06  0.5881401E+00 -0.2286355E+00  0.2400518E-03 -0.4126400E+02 -0.8863592E+00  0.4092852E-01  0.1509350E-03  0.2406596E+06  0.7664369E+00 -0.2194087E+00  0.5657547E-03 -0.1360009E+04  0.5782591E+00 -0.5385280E-02  0.5991198E-04 -0.6315575E+04 -0.7998474E+01 -0.5092224E-02  0.8397233E-03 -0.2102521E+04  0.7537127E+00  0.1200040E-01  0.6474406E-03
  0.6000000E-01  0.3255078E+06  0.4731074E+01 -0.1181285E+00  0.4079538E-03 -0.7314237E+01 -0.2252124E+00  0.9799003E-01 -0.1368555E-02  0.2415990E+06  0.6147796E+01 -0.1914024E+00  0.2415519E-02 -0.2391883E+03  0.4359921E+01 -0.1999736E-02 -0.4731193E-03 -0.8114346E+04 -0.5597380E+02 -0.8420149E-02  0.9328127E-04 -0.3843581E+03  0.5672463E+01 -0.9902318E-02  0.4563630E-03
  0.9000000E-01  0.3254844E+06  0.1605590E+02 -0.2763483E+00 -0.2562271E-03 -0.5208185E+01  0.8552369E+00  0.2517276E+00  0.1660150E-02  0.2425447E+06  0.2087974E+02 -0.1825545E+00 -0.8822437E-03  0.2393327E+03  0.1224694E+02 -0.1401371E-02  0.9202957E-04 -0.7977828E+04 -0.1820557E+03 -0.3955099E-02  0.1440287E-02  0.8003994E+03  0.1514561E+02 -0.3226598E-02 -0.1213431E-02
  0.1200000E+00  0.3268779E+06  0.3845464E+02 -0.2088785E+00 -0.1575267E-03 -0.1184328E+02  0.1386481E+01  0.2613862E+00  0.3390564E-03  0.2444898E+06  0.4995587E+02 -0.3360113E+00  0.1155879E-02 -0.9575023E+03  0.3056173E+02  0.1025200E-02  0.2812147E-03 -0.8023264E+04 -0.4202725E+03 -0.2904733E-02  0.5506277E-03 -0.1335586E+04  0.4047031E+02 -0.1255671E-02 -0.1071453E-02
  0.1500000E+00  0.3277840E+06  0.7609026E+02 -0.2807045E+00 -0.4974864E-03 -0.2430387E+02  0.2137109E+01  0.1339594E+00  0.5519873E-02  0.2453981E+06  0.9871268E+02 -0.2675374E+00  0.5506419E-02 -0.7642883E+03  0.4559704E+02 -0.3207525E-02 -0.5197525E-03 -0.8183886E+04 -0.7738338E+03  0.5483627E-02 -0.1486540E-02 -0.1038498E+04  0.6047749E+02  0.7184346E-03  0.6191730E-02
  0.1800000E+00  0.3290034E+06  0.1337389E+03 -0.1257420E+00  0.4802942E-03 -0.3870574E+02  0.5978230E+00  0.2031750E+00 -0.2050556E-02  0.2467269E+06  0.1732200E+03 -0.2717760E+00  0.4669718E-02 -0.9964708E+03  0.5016644E+02 -0.1192093E-02 -0.3068447E-03 -0.7356798E+04 -0.1281944E+04  0.6217427E-02 -0.7872581E-03 -0.1250591E+04  0.5969588E+02 -0.7295608E-02 -0.1915932E-02
  0.2100000E+00  0.3295791E+06  0.2164051E+03 -0.1770201E+00 -0.1096921E-02 -0.5364636E+02 -0.2651743E+01  0.1419431E+00  0.8610450E-03  0.2476136E+06  0.2798541E+03 -0.2577645E+00  0.4212707E-02 -0.1407242E+04  0.7357432E+02 -0.1078560E-03 -0.9300709E-03 -0.6394854E+04 -0.1879560E+04 -0.6341934E-02  0.1617432E-02 -0.1839986E+04  0.1034428E+03 -0.7007236E-02 -0.4338264E-02
  0.2400000E+00  0.3315303E+06  0.3315072E+03 -0.2613147E+00 -0.2007067E-02 -0.5786430E+02 -0.1073602E+02  0.2620220E+00 -0.9481743E-02  0.2494458E+06  0.4276661E+03 -0.3171285E+00 -0.2376944E-02 -0.1679020E+04  0.1745892E+02  0.8722147E-03  0.9865761E-03 -0.4796296E+04 -0.2550215E+04 -0.8722147E-02  0.2401352E-02 -0.2164256E+04  0.2232786E+02  0.8567175E-02  0.7419586E-03
  0.2700000E+00  0.3334575E+06  0.4862685E+03 -0.2952858E+00 -0.1389047E-02 -0.4388456E+02 -0.2267650E+02  0.2881085E+00  0.5725771E-03  0.2520483E+06  0.6260623E+03 -0.3961634E-01  0.1814738E-02 -0.2020440E+04 -0.7368098E+02 -0.2549313E-02  0.1264095E-02 -0.2610436E+04 -0.3282333E+04 -0.1972163E-01  0.1667976E-02 -0.2570691E+04 -0.1149572E+03  0.1454530E-01 -0.2174377E-03
  0.3000000E+00  0.3348155E+06  0.6895578E+03 -0.4442787E+00 -0.5438924E-06 -0.7915242E+01 -0.3583648E+02  0.3163274E+00  0.3405988E-02  0.2534140E+06  0.8852647E+03 -0.2534993E+00 -0.9513393E-02 -0.2401396E+04 -0.1824189E+03 -0.6786386E-02  0.8482933E-03  0.4052902E+02 -0.3936968E+04  0.5288919E-02  0.7343292E-03 -0.3120513E+04 -0.2094091E+03 -0.5254745E-02  0.4425049E-03
  0.3300000E+00  0.3365062E+06  0.9537419E+03 -0.2845475E+00  0.1346659E-02  0.5620341E+02 -0.4545375E+02  0.1711065E+00  0.7025301E-02  0.2550025E+06  0.1220458E+04 -0.7042162E-01  0.6814301E-02 -0.2632054E+04 -0.4385131E+03 -0.1721852E-02  0.5054474E-03  0.3046598E+04 -0.4440617E+04 -0.8980794E-02 -0.1716614E-04 -0.3393022E+04 -0.5504406E+03  0.1249386E-01  0.1361847E-02
  0.3600000E+00  0.3392686E+06  0.1290149E+04 -0.2598286E+00 -0.3614828E-02  0.1373528E+03 -0.4310519E+02  0.2669652E+00  0.2117243E-01  0.2582848E+06  0.1646114E+04 -0.1608107E+00 -0.3160179E-02 -0.2643972E+04 -0.7950880E+03 -0.4171000E-02 -0.1239777E-03  0.6351872E+04 -0.4713173E+04 -0.2555052E-02 -0.6046295E-03 -0.3294264E+04 -0.1044388E+04  0.1508130E-01  0.3471375E-03
  0.3900000E+00  0.3419717E+06  0.1712771E+04 -0.2253410E+00  0.3390014E-04  0.2125897E+03 -0.2089513E+02  0.1441369E+00  0.1391530E-02  0.2612551E+06  0.2177363E+04 -0.1107240E+00 -0.5345821E-02 -0.2490394E+04 -0.1225607E+04  0.2519901E-02 -0.1711845E-02  0.9684925E+04 -0.4612400E+04  0.2254584E-02  0.1323700E-02 -0.3142168E+04 -0.1558984E+04 -0.5516639E-02  0.1762390E-02
  0.4200000E+00  0.3447501E+06  0.2237704E+04 -0.2426783E+00  0.1900494E-02  0.2556351E+03  0.2632348E+02  0.1516615E+00 -0.2530217E-02  0.2640035E+06  0.2831941E+04 -0.6935483E-01 -0.1615310E-01 -0.2010706E+04 -0.1775631E+04  0.1952762E-02  0.3786087E-03  0.1285086E+05 -0.4037267E+04 -0.5635761E-02 -0.4278183E-02 -0.2633551E+04 -0.2231170E+04 -0.1146226E-01  0.7171631E-02
  0.4500000E+00  0.3475312E+06  0.2873148E+04 -0.1529694E+00 -0.7702112E-03  0.2307380E+03  0.9565196E+02  0.8961996E-01  0.6785393E-03  0.2672908E+06  0.3621982E+04 -0.2372911E+00 -0.9298325E-04 -0.1081591E+04 -0.2396594E+04  0.5425347E-02 -0.1939774E-02  0.1554001E+05 -0.2897272E+04 -0.7663303E-02  0.7043839E-02 -0.1397169E+04 -0.3024502E+04 -0.1130846E-01 -0.3551483E-02
  0.4800000E+00  0.3502877E+06  0.3636630E+04 -0.1018445E+00 -0.7440627E-02  0.1123191E+03  0.1690552E+03  0.6917318E-01 -0.1394749E-04  0.2701732E+06  0.4564498E+04 -0.1743317E+00 -0.4399776E-02  0.3051509E+03 -0.2994210E+04 -0.1541774E-02  0.9374619E-03  0.1745034E+05 -0.1139763E+04 -0.2392133E-02  0.1017570E-02  0.4401649E+03 -0.3762775E+04 -0.5133947E-02 -0.3295898E-02
  0.5100000E+00  0.3537192E+06  0.4562090E+04 -0.1756631E+00 -0.5293012E-02 -0.9782694E+02  0.2155519E+03  0.1082476E+00  0.1709223E-02  0.2735087E+06  0.5697075E+04  0.1789168E-01 -0.2638626E-01  0.2192104E+04 -0.3486613E+04  0.8224038E-02  0.1474380E-02  0.1827299E+05  0.1226888E+04  0.5535051E-02  0.3528595E-04  0.2789141E+04 -0.4345096E+04  0.1062131E-02  0.8246422E-02
  0.5400000E+00  0.3581474E+06  0.5696174E+04 -0.1915190E+00 -0.4617333E-02 -0.3577722E+03  0.1946527E+03  0.2377828E-01  0.9763002E-02  0.2781673E+06  0.7074549E+04 -0.1299823E+00 -0.2427769E-01  0.4555161E+04 -0.3722011E+04  0.6456728E-02  0.1990557E-02  0.1775365E+05  0.4123339E+04  0.1310419E-01  0.4293919E-02  0.5681754E+04 -0.4610080E+04  0.4252681E-02 -0.6757736E-02
  0.5699999E+00  0.3628567E+06  0.7087589E+04 -0.1238840E+00 -0.9054303E-02 -0.5790494E+03  0.7137930E+02  0.1930103E-01 -0.1128840E-01  0.2835491E+06  0.8757031E+04 -0.1607260E+00  0.1390171E-01  0.7246821E+04 -0.3482549E+04  0.6612143E-02  0.2742767E-02  0.1557092E+05  0.7347695E+04  0.7977404E-02 -0.6309509E-02  0.8960549E+04 -0.4296117E+04  0.5072879E-02 -0.2071381E-02
  0.6000000E+00  0.3676222E+06  0.8833937E+04 -0.8762360E-01 -0.6467760E-02 -0.6362510E+03 -0.1550885E+03  0.5238851E-01  0.9923935E-02  0.2887612E+06  0.1085554E+05  0.5493164E-02 -0.4276752E-02  0.9995715E+04 -0.2540313E+04  0.4685719E-02 -0.3080368E-02  0.1163001E+05  0.1059262E+05  0.1623154E-01  0.6862640E-02  0.1228535E+05 -0.3122979E+04  0.2028147E-01  0.3303528E-02
  0.6299999E+00  0.3725580E+06  0.1107202E+05 -0.1822457E+00 -0.5433977E-02 -0.4241647E+03 -0.4242145E+03  0.3238255E-01  0.1472557E-01  0.2937919E+06  0.1351923E+05  0.1204718E+00 -0.1256752E-01  0.1238292E+05 -0.6871103E+03 -0.1528907E-02  0.2784729E-02  0.5969217E+04  0.1340994E+05  0.4153783E-02  0.1387024E-01  0.1513151E+05 -0.8380640E+03  0.7023888E-03  0.9613037E-03
  0.6600000E+00  0.3777085E+06  0.1394774E+05 -0.3538999E-01 -0.2886295E-02  0.7963504E+02 -0.6064816E+03 -0.8383086E-01 -0.2232504E-01  0.2987361E+06  0.1690541E+05  0.1004306E+00 -0.4858971E-03  0.1384904E+05  0.2234204E+04 -0.6950262E-03  0.1205444E-02 -0.1133428E+04  0.1525322E+05  0.3433227E-02  0.1483154E-01  0.1680363E+05  0.2719644E+04  0.3756899E-02 -0.2532959E-02
  0.6899999E+00  0.3829742E+06  0.1749439E+05  0.1552969E-01 -0.1434207E-02  0.7378679E+03 -0.5327707E+03  0.3372414E-01  0.7273436E-02  0.3040960E+06  0.2105450E+05  0.2772235E+00 -0.9914398E-02  0.1362491E+05  0.6203949E+04  0.1306119E-02  0.3322601E-02 -0.9096275E+04  0.1546315E+05 -0.1159198E-01  0.1613617E-01  0.1640898E+05  0.7491465E+04  0.1732647E-01  0.6546021E-02
  0.7200000E+00  0.3881923E+06  0.2162759E+05  0.7104874E-01  0.1144695E-01  0.1219238E+04 -0.8913129E+02 -0.9151035E-01 -0.1976252E-01  0.3095386E+06  0.2586524E+05  0.2129873E+00  0.1004028E-01  0.1094053E+05  0.1085965E+05  0.4988246E-02 -0.4352570E-02 -0.1693707E+05  0.1343482E+05 -0.3378126E-01  0.2896118E-01  0.1307725E+05  0.1301927E+05 -0.6177690E-02  0.6378174E-02
  0.7499999E+00  0.3939401E+06  0.2623063E+05  0.4605815E+00  0.3092289E-01  0.1128646E+04  0.6238295E+03 -0.6727703E+00 -0.2572346E-01  0.3154904E+06  0.3118648E+05  0.1292318E+00  0.6347656E-02  0.5268330E+04  0.1543487E+05  0.9282432E-02 -0.3887177E-02 -0.2342593E+05  0.8846622E+04 -0.5077108E-01  0.1806641E-01  0.6245480E+04  0.1837491E+05  0.2197266E-02 -0.3112793E-02
  0.7800000E+00  0.4001747E+06  0.3130450E+05  0.2231989E+00  0.1356936E-01  0.2634538E+03  0.1231322E+04 -0.4421919E+00 -0.6547928E-02  0.3215721E+06  0.3694812E+05 -0.1322428E-01 -0.1648712E-01 -0.3497738E+04  0.1868602E+05 -0.4401574E-03  0.5584717E-02 -0.2717725E+05  0.1791344E+04  0.4565899E-01  0.4135132E-02 -0.4137692E+04  0.2209218E+05 -0.1369379E-02  0.1693726E-01
  0.8100000E+00  0.4074488E+06  0.3724001E+05 -0.1804305E+00 -0.5531168E-01 -0.1093039E+04  0.1192074E+04  0.3020110E+00  0.9059715E-01  0.3285283E+06  0.4357203E+05 -0.2343449E+00 -0.5659103E-01 -0.1469297E+05  0.1902829E+05 -0.1085069E-01  0.3484726E-02 -0.2702309E+05 -0.7121500E+04  0.6832547E-01  0.1404953E-01 -0.1727609E+05  0.2229308E+05 -0.6141192E-02  0.1623535E-01
  0.8400000E+00  0.4160341E+06  0.4490604E+05 -0.5702064E+00 -0.1238918E+00 -0.2096387E+04  0.1570028E+03  0.6979080E+00  0.1589546E+00  0.3373826E+06  0.5208296E+05 -0.3916423E+00 -0.4697800E-01 -0.2666395E+05  0.1453633E+05  0.2397810E-02 -0.3887177E-02 -0.2203841E+05 -0.1665026E+05  0.1467750E-01  0.3218079E-01 -0.3107953E+05  0.1684163E+05 -0.4141672E-02 -0.1851654E-01
  0.8700000E+00  0.4249363E+06  0.5557776E+05 -0.2331789E+00 -0.1024342E+00 -0.1659189E+04 -0.1482810E+04  0.3852757E+00  0.1313429E+00  0.3466269E+06  0.6397193E+05 -0.3765939E+00 -0.2964211E-01 -0.3612620E+05  0.3495127E+04 -0.5875511E-03  0.1024628E-01 -0.1191415E+05 -0.2481437E+05 -0.2367743E-02  0.1564026E-01 -0.4175955E+05  0.4006986E+04  0.7857399E-02 -0.2746582E-02
  0.9000000E+00  0.4312968E+06  0.6978585E+05  0.8623081E+00  0.1637931E+00  0.4469649E+03 -0.2389134E+04 -0.6558737E+00 -0.1871367E+00  0.3527046E+06  0.7972545E+05 -0.2814399E+00 -0.9236145E-01 -0.3832706E+05 -0.1377004E+05 -0.4480150E-02  0.2423859E-01  0.2410086E+04 -0.2875420E+05 -0.3085666E-02 -0.5003357E-01 -0.4395258E+05 -0.1587777E+05 -0.4408095E-03 -0.1947021E-01
  0.9300000E+00  0.4337960E+06  0.8597143E+05  0.1255930E+01  0.2883759E+00  0.2717733E+04 -0.1134668E+04 -0.1566946E+01 -0.3226280E+00  0.3538129E+06  0.9736495E+05 -0.2671108E-01 -0.4199219E-01 -0.2890535E+05 -0.3373557E+05 -0.3716253E-01  0.2355957E-01  0.1764304E+05 -0.2574940E+05  0.7603963E-01 -0.8657837E-01 -0.3286755E+05 -0.3847940E+05 -0.1773014E-02  0.9216309E-02
  0.9600000E+00  0.4337133E+06  0.1009166E+06  0.9493272E+00  0.1604214E+00  0.2706363E+04  0.1775487E+04 -0.5262852E+00 -0.1248093E+00  0.3518453E+06  0.1132574E+06 -0.6256104E-01 -0.6800842E-01 -0.7015132E+04 -0.4930421E+05 -0.2694130E-02  0.7644653E-02  0.2936190E+05 -0.1522500E+05 -0.4231135E-01  0.7629395E-02 -0.7826743E+04 -0.5567034E+05  0.1945496E-01 -0.1269531E-01
  0.9900000E+00  0.4366019E+06  0.1137644E+06 -0.4790335E-01 -0.7413101E-01 -0.3189361E+03  0.3555790E+04  0.3986551E+00  0.7915497E-01  0.3540263E+06  0.1266780E+06 -0.1535743E+00 -0.6614685E-01  0.2351299E+05 -0.5236964E+05  0.1447273E-01  0.2731323E-02  0.3392420E+05  0.8472180E+03 -0.8927162E-01 -0.1103210E-01  0.2643784E+05 -0.5860242E+05  0.5302044E-02  0.1196289E-01
  0.1020000E+01  0.4452418E+06  0.1298268E+06 -0.7592744E-01  0.2313614E-02 -0.3688442E+04  0.1496705E+04 -0.2467735E+00 -0.5749130E-01  0.3629386E+06  0.1435929E+06 -0.4964193E+00 -0.2023315E-01  0.5456500E+05 -0.3598582E+05  0.3754859E-02 -0.9380341E-02  0.2935262E+05  0.1916818E+05  0.4846910E-01  0.3329849E-01  0.6076608E+05 -0.3994946E+05  0.1645556E-01  0.8949280E-02
  0.1050000E+01  0.4539237E+06  0.1573999E+06  0.6583078E-02  0.1280785E-02 -0.3054746E+04 -0.3221038E+04  0.5280995E-01 -0.9866524E-01  0.3714899E+06  0.1729342E+06 -0.2363514E+00 -0.7060242E-01  0.7280352E+05  0.3379020E+04  0.2223424E-02  0.1982117E-01  0.1452559E+05  0.3445825E+05  0.9300596E-02 -0.7061768E-01  0.8053285E+05  0.3842931E+04  0.1046317E-01  0.7690430E-02
  0.1080000E+01  0.4495179E+06  0.1942450E+06 -0.1452057E+00  0.7550240E-02  0.1964585E+04 -0.4462617E+04  0.2964726E+00  0.1067696E+00  0.3654476E+06  0.2117089E+06 -0.4043014E+00  0.4570007E-01  0.6096075E+05  0.5581743E+05 -0.5248741E-02 -0.1147461E-01 -0.7379511E+04  0.3826770E+05  0.3258034E-01 -0.5126953E-01  0.6693861E+05  0.6145741E+05  0.1633256E-01  0.4614258E-01
  0.1110000E+01  0.4316639E+06  0.2218533E+06  0.2611727E+00  0.2159157E+00  0.4648852E+04  0.7071707E+03 -0.4180358E+00 -0.3233185E+00  0.3447280E+06  0.2397555E+06 -0.3269505E+00 -0.1004639E+00  0.1618937E+05  0.9266219E+05  0.2928725E-01 -0.7720947E-02 -0.2638051E+05  0.2619458E+05 -0.9320233E-02 -0.1379395E-01  0.1755625E+05  0.1011373E+06  0.6543409E-02 -0.3015137E-01
  0.1140000E+01  0.4202909E+06  0.2339610E+06  0.5955613E-01  0.1531601E+00  0.7558210E+03  0.5364403E+04  0.1964904E+00 -0.3196716E-01  0.3312421E+06  0.2507790E+06 -0.3207023E-01  0.1252747E+00 -0.4168816E+05  0.9090002E+05 -0.2328973E-02  0.2059937E-02 -0.3432256E+05  0.3960286E+04  0.7484838E-01 -0.1614380E-01 -0.4520744E+05  0.9834806E+05 -0.2248664E-02 -0.4949951E-01
  0.1170000E+01  0.4258126E+06  0.2528131E+06  0.1031533E+00  0.1686974E+00 -0.4529386E+04  0.2335927E+04 -0.1918304E+00 -0.1824875E+00  0.3370247E+06  0.2693220E+06 -0.2875434E+00 -0.2276611E-01 -0.8963051E+05  0.4415817E+05 -0.1405895E-01  0.1112938E-01 -0.2966838E+05 -0.2086022E+05  0.4058577E-01  0.5178833E-01 -0.9646884E+05  0.4744832E+05 -0.4382011E-01 -0.1534271E-01
  0.1200000E+01  0.4264415E+06  0.2994817E+06 -0.1406542E+00 -0.4936218E-02 -0.2830170E+04 -0.5019836E+04  0.7085164E-01 -0.7665634E-01  0.3374362E+06  0.3173840E+06  0.1550293E+00  0.5194092E-01 -0.9905902E+05 -0.4281248E+05 -0.1584371E-01  0.1605225E-01 -0.1115800E+05 -0.3977395E+05  0.7069905E-02 -0.1696777E-01 -0.1062004E+06 -0.4599221E+05 -0.6724039E-01 -0.4174805E-01
  0.1230000E+01  0.3961932E+06  0.3457289E+06 -0.8833970E-01 -0.2545166E-01  0.3693050E+04 -0.3945279E+04 -0.3595119E-01  0.3208923E-01  0.3053641E+06  0.3642641E+06 -0.2352086E+00  0.1745605E-01 -0.4638797E+05 -0.1210054E+06 -0.2200041E-01 -0.2404785E-01  0.1376994E+05 -0.3795265E+05  0.4332628E-02  0.1336670E-01 -0.4951370E+05 -0.1293128E+06 -0.3240322E-01 -0.4064941E-01
  0.1260000E+01  0.3635632E+06  0.3531648E+06 -0.1559787E+00 -0.1520157E+00  0.3422996E+04  0.3811081E+04  0.7033575E-01 -0.3630066E-01  0.2708957E+06  0.3699686E+06 -0.1264300E+00 -0.2550049E+00  0.3484427E+05 -0.1293016E+06 -0.6733243E-02 -0.2319336E-01  0.2877113E+05 -0.1636455E+05 -0.2019973E-01  0.2270508E-01  0.3705770E+05 -0.1375023E+06  0.6171333E-01 -0.3796387E-01
  0.1290000E+01  0.3594815E+06  0.3547705E+06  0.4455803E-01 -0.5139160E-01 -0.2420129E+04  0.4597172E+04 -0.1049781E+00 -0.1103821E+00  0.2661339E+06  0.3696347E+06 -0.2252150E-01 -0.4980469E-01  0.9776870E+05 -0.6684568E+05  0.2010848E-01 -0.4624939E-01  0.2895191E+05  0.1111337E+05 -0.5786512E-01  0.1206970E-01  0.1034107E+06 -0.7074941E+05  0.6377938E-01 -0.1525879E-01
  0.1320000E+01  0.3597601E+06  0.3940068E+06  0.2687685E+00  0.4429436E+00 -0.3603423E+04 -0.2695639E+04 -0.1728867E+00 -0.3221741E+00  0.2658618E+06  0.4074253E+06 -0.1263243E+00  0.7055664E-01  0.1100918E+06  0.4744155E+05  0.5111694E-01 -0.5200195E-01  0.1488035E+05  0.3407640E+05 -0.3782330E-01 -0.7019043E-02  0.1158858E+06  0.4976736E+05  0.9802616E-01  0.4370117E-01
  0.1350000E+01  0.3258512E+06  0.4402245E+06 -0.7188585E-01  0.9058380E-01  0.1834402E+04 -0.4614038E+04  0.1208722E+00  0.7715607E-01  0.2321514E+06  0.4530713E+06  0.1964880E+00  0.2993774E-01  0.4549202E+05  0.1449040E+06  0.6248191E-01  0.2951050E-01 -0.8139150E+04  0.3689891E+05 -0.2787272E-01 -0.7043457E-01  0.4794432E+05  0.1521386E+06 -0.5190249E-01  0.1274414E+00
  0.1380000E+01  0.2876386E+06  0.4381603E+06 -0.1592996E+00 -0.2480774E+00  0.3050351E+04  0.2054670E+04  0.7209225E-02  0.2530975E+00  0.1940230E+06  0.4499787E+06 -0.3386124E+00  0.9521484E-01 -0.4762814E+05  0.1403211E+06  0.1813363E-02  0.7882690E-01 -0.2328654E+05  0.1658607E+05  0.2047774E-01 -0.5084229E-01 -0.4984660E+05  0.1474688E+06 -0.5961985E-01  0.5541992E-01
  0.1410000E+01  0.2807526E+06  0.4279045E+06  0.1315448E+00  0.3141632E+00 -0.1129660E+04  0.3964729E+04 -0.1248299E+00 -0.2330322E+00  0.1871949E+06  0.4387309E+06  0.2965183E-01  0.2631836E+00 -0.1049179E+06  0.4818109E+05 -0.3181620E-01  0.4021025E-01 -0.2335819E+05 -0.1056143E+05  0.4597116E-01 -0.3511143E-01 -0.1100612E+06  0.5081627E+05 -0.8311170E-01 -0.8575439E-02
  0.1440000E+01  0.2790602E+06  0.4555372E+06 -0.1469347E+00  0.2256393E-01 -0.2653847E+04 -0.1402312E+04 -0.1454883E-01 -0.9503174E-01  0.1855538E+06  0.4652670E+06  0.2508799E+00  0.2369385E+00 -0.9566011E+05 -0.8247050E+05 -0.2038744E-01 -0.3506470E-01 -0.1000191E+05 -0.3085458E+05  0.2293057E-01  0.1037598E-02 -0.1004493E+06 -0.8627895E+05 -0.9019639E-01 -0.1092529E+00
  0.1470000E+01  0.2482954E+06  0.4893614E+06 -0.3017503E+00 -0.5462341E+00  0.9683490E+03 -0.3726598E+04  0.1623037E+00  0.4945526E+00  0.1551880E+06  0.4971917E+06  0.5729831E-01  0.2584534E+00 -0.1410890E+05 -0.1599194E+06  0.3286868E-01 -0.4418945E-01  0.9376739E+04 -0.2959516E+05 -0.5916673E-02  0.7849121E-01 -0.1501616E+05 -0.1675637E+06  0.6734627E-01 -0.8691406E-01
  0.1500000E+01  0.2139583E+06  0.4761099E+06 -0.8789063E-02 -0.1044998E+00  0.2334809E+04  0.1395160E+04  0.4477946E-01  0.1273193E+00  0.1215674E+06  0.4821485E+06 -0.1413981E+00  0.1340942E+00  0.7177067E+05 -0.1119590E+06  0.2121989E-01  0.4779053E-01  0.1919177E+05 -0.7959552E+04  0.4695638E-01 -0.4998779E-01  0.7493974E+05 -0.1175208E+06  0.9635416E-01  0.6896973E-01
  0.1530000E+01  0.2112405E+06  0.4542760E+06 -0.1071107E+00  0.1733551E+00 -0.9884664E+03  0.3569570E+04  0.1025730E+00 -0.3080139E+00  0.1194462E+06  0.4592767E+06  0.3488179E+00  0.1862793E+00  0.9912998E+05  0.9772017E+04  0.1515906E-02  0.9184265E-01  0.1536786E+05  0.1515012E+05  0.5185994E-02  0.3198242E-01  0.1038075E+06  0.9725096E+04  0.6813598E-01  0.1407166E+00
  0.1560000E+01  0.2137914E+06  0.4825212E+06 -0.1961146E-01 -0.3111153E+00 -0.2410601E+04 -0.2107119E+04 -0.3896860E-01  0.2308884E+00  0.1228252E+06  0.4871233E+06  0.3135486E+00  0.1995850E-01  0.5625432E+05  0.1274656E+06 -0.1481863E-01  0.2825928E-01  0.2039444E+04  0.2726143E+05 -0.6299141E-02 -0.1342773E-02  0.5933811E+05  0.1337602E+06 -0.4749787E-01  0.1926270E+00
  0.1590000E+01  0.1755157E+06  0.5091690E+06  0.3973043E-02 -0.4318466E+00  0.1886899E+04 -0.3472812E+04  0.2088247E-01  0.2771606E+00  0.8603112E+05  0.5131956E+06 -0.3137744E+00  0.1669312E+00 -0.3392282E+05  0.1422762E+06 -0.4683201E-01  0.1586914E-01 -0.1211078E+05  0.1748739E+05  0.1627604E-01 -0.2844238E-01 -0.3571648E+05  0.1502914E+06 -0.1073297E+00 -0.1831055E-01
  0.1620000E+01  0.1523635E+06  0.4608443E+06  0.3755828E-01  0.1161957E+00  0.1688837E+04  0.3732602E+04  0.1745342E-01 -0.1030884E+00  0.6387400E+05  0.4659141E+06  0.7056719E-01  0.1563721E+00 -0.8438655E+05  0.3899212E+05 -0.2524293E-01 -0.1630020E-01 -0.1417586E+05 -0.4181321E+04  0.4822531E-02 -0.2466583E-01 -0.8948611E+05  0.4128730E+05 -0.5696614E-01 -0.9362793E-01
  0.1650000E+01  0.1737686E+06  0.4543301E+06  0.8421002E-01 -0.4599380E+00 -0.2745183E+04  0.1834639E+04 -0.5724358E-01  0.4102325E+00  0.8509492E+05  0.4596106E+06  0.2617669E+00  0.3131104E-01 -0.6943068E+05 -0.8278469E+05  0.2108487E-02 -0.7531738E-01 -0.6460783E+04 -0.1957922E+05  0.2108487E-02  0.6469727E-01 -0.7384678E+05 -0.8846196E+05  0.4453717E-01 -0.1574707E+00
  0.1680000E+01  0.1518969E+06  0.5137854E+06  0.1433236E-01 -0.4990234E+00  0.2143666E+02 -0.5277544E+04  0.9663900E-02  0.6015320E+00  0.6444256E+05  0.5165278E+06 -0.3620693E+00 -0.1847839E+00  0.4859449E+04 -0.1435175E+06  0.6035396E-01 -0.3930664E-01  0.6127311E+04 -0.1916651E+05 -0.2868289E-01  0.1184082E-01  0.5543331E+04 -0.1534043E+06  0.2138047E-01 -0.4394531E-02
  0.1710000E+01  0.1113967E+06  0.4628182E+06  0.1823470E-01  0.4658508E-01  0.2619003E+04  0.1998251E+04  0.4820349E-01 -0.1668396E+00  0.2595246E+05  0.4670738E+06 -0.3097445E+00  0.4675293E-01  0.6734216E+05 -0.6447408E+05  0.5307560E-01  0.2374268E-01  0.1104769E+05 -0.1541336E+04 -0.2926832E-01 -0.1345825E-01  0.7251464E+05 -0.6852894E+05  0.2312911E-01  0.1181641E+00
  0.1740000E+01  0.1386618E+06  0.4294153E+06  0.7494345E-01  0.9834290E-02 -0.1972040E+04  0.3439542E+04 -0.1897702E-01  0.5523682E-02  0.5280431E+05  0.4342986E+06  0.2013722E+00 -0.3765869E-01  0.6719309E+05  0.5163085E+05  0.1438185E-02  0.1419067E+00  0.6709466E+04  0.1305775E+05 -0.9926982E-02 -0.1416016E+00  0.7220153E+05  0.5656673E+05 -0.9737563E-01  0.7714844E-01
  0.1770000E+01  0.1284350E+06  0.5010754E+06 -0.1166392E-01 -0.4033661E-01 -0.8759801E+03 -0.4800904E+04 -0.1437947E-01  0.1053467E+00  0.4406779E+05  0.5035519E+06 -0.1944159E+00 -0.3745117E+00  0.9029799E+04  0.1311095E+06 -0.7698576E-01  0.1259155E+00 -0.2958795E+04  0.1658253E+05  0.7533704E-01 -0.1113281E+00  0.8977709E+04  0.1422936E+06 -0.4060390E-01  0.1044922E+00
  0.1800000E+01  0.8381605E+05  0.4493583E+06 -0.5134159E-01  0.1800385E+00  0.2500022E+04  0.1014516E+04  0.1205444E+00 -0.2147827E+00  0.1426017E+04  0.4559028E+06 -0.4510498E+00 -0.3175049E+00 -0.5401156E+05  0.7134137E+05 -0.1124912E+00 -0.8460999E-01 -0.8178543E+04  0.3015406E+04  0.1162381E+00  0.6613159E-01 -0.5967849E+05  0.7615332E+05 -0.7934570E-01 -0.6054688E-01
  0.1830000E+01  0.1137265E+06  0.4105507E+06 -0.1185683E-01  0.5294800E-02 -0.1491768E+04  0.3356165E+04  0.1291160E-01 -0.1196747E+00  0.3040862E+05  0.4190321E+06  0.3640847E+00 -0.1613770E+00 -0.6019771E+05 -0.3779459E+05  0.6687185E-02 -0.2310181E+00 -0.5454972E+04 -0.9598679E+04  0.4002305E-03  0.1843872E+00 -0.6563730E+05 -0.4427956E+05  0.1907765E-01 -0.5444336E-01
  0.1860000E+01  0.1018937E+06  0.4821565E+06 -0.1471735E-01 -0.4482956E+00 -0.6756885E+03 -0.4211856E+04 -0.3834386E-01  0.2713776E+00  0.2003452E+05  0.4892807E+06 -0.5291026E+00 -0.1375732E+00 -0.9875048E+04 -0.1187058E+06  0.4912345E-01 -0.2630615E-01  0.2082097E+04 -0.1307799E+05 -0.5208908E-01  0.1562500E-01 -0.8840778E+04 -0.1316982E+06  0.7621191E-01 -0.5932617E-01
  0.1890000E+01  0.6618799E+05  0.4197224E+06 -0.1037033E-01 -0.7766724E-01  0.1973963E+04  0.1133620E+04  0.1170244E+00  0.9967041E-01 -0.1455215E+05  0.4314515E+06 -0.1523941E+00  0.1794434E+00  0.4643473E+05 -0.6462652E+05  0.2602875E-01  0.7673645E-01  0.6102233E+04 -0.2167490E+04 -0.1866578E-01 -0.6570435E-01  0.5281521E+05 -0.6825498E+05 -0.2273479E-01  0.1440430E-01
  0.1920000E+01  0.9672995E+05  0.3978361E+06  0.1201371E+00  0.8330536E-01 -0.1359521E+04  0.2457233E+04 -0.1787583E+00 -0.1338196E-01  0.1517035E+05  0.4098004E+06  0.3270944E+00  0.2966614E+00  0.5199466E+05  0.4064936E+05  0.1637141E-02 -0.1046753E-01  0.3798946E+04  0.8192553E+04  0.7088979E-02  0.3564453E-01  0.5687289E+05  0.4968602E+05 -0.4692078E-01 -0.3637695E-01
  0.1950000E+01  0.7428177E+05  0.4517572E+06  0.9679549E-02 -0.1499481E+00 -0.4777368E+02 -0.3249842E+04  0.7062863E-01  0.5480957E-01 -0.5111386E+04  0.4646502E+06 -0.2959110E+00  0.3035889E+00  0.1602851E+04  0.1075532E+06  0.1875657E-01 -0.3686523E-01 -0.2157687E+04  0.9170637E+04 -0.3798265E-01  0.5395508E-01 -0.9543464E+03  0.1200504E+06 -0.7580879E-01  0.5639648E-01
  0.1980000E+01  0.5763033E+05  0.3807348E+06  0.8619578E-01 -0.1055145E+00  0.1219802E+04  0.1617971E+04 -0.3275245E-01  0.2301025E+00 -0.2201202E+05  0.3980254E+06  0.4627112E+00  0.3635254E+00 -0.4366544E+05  0.4706146E+05  0.3235171E-01  0.1413422E+00 -0.4189049E+04  0.2678576E+03 -0.6263810E-01 -0.1799469E+00 -0.5000978E+05  0.4798833E+05  0.5967882E-01 -0.2136230E-02
  0.2010000E+01  0.8170880E+05  0.3880836E+06  0.6747270E-01 -0.1813049E+00 -0.1148312E+04  0.7508147E+03 -0.6629603E-01  0.2268372E+00  0.2273428E+04  0.4048811E+06 -0.7561072E-01  0.4768372E+00 -0.4042515E+05 -0.5736875E+05 -0.9956929E-01  0.2026672E+00 -0.1704052E+04 -0.6557734E+04  0.9619869E-01 -0.2803955E+00 -0.4368229E+05 -0.6864231E+05  0.2720771E-01  0.1787109E+00
  0.2040000E+01  0.5334987E+05  0.4034408E+06 -0.7517198E-02  0.1181030E-01  0.4577951E+03 -0.1657401E+04  0.5434822E-01 -0.3433228E-01 -0.2488729E+05  0.4249022E+06  0.9463441E-01  0.3934326E+00  0.1096960E+05 -0.9089975E+05 -0.1291761E+00 -0.1682434E+00  0.1988903E+04 -0.4524529E+04  0.1798443E+00  0.8538818E-01  0.1483465E+05 -0.1007394E+06  0.6704891E-01 -0.1784668E+00
  0.2070000E+01  0.5666927E+05  0.3435789E+06  0.2472735E-01  0.1184082E-01  0.1779461E+02  0.1181672E+04 -0.1139802E-01  0.8908081E-01 -0.2300790E+05  0.3676879E+06  0.2879267E-01  0.1435547E+00  0.4209012E+05 -0.1795158E+05  0.5908911E-01 -0.4738922E+00  0.2009095E+04  0.8887533E+03  0.3965811E-01  0.5995941E+00  0.4785629E+05 -0.1493306E+05 -0.1790365E+00 -0.2447281E+00
  0.2100000E+01  0.6501233E+05  0.3704532E+06 -0.2014160E-01  0.1488571E+00  0.5517588E+03 -0.3961896E+03 -0.6706601E-01 -0.4430237E+00 -0.1370866E+05  0.3963071E+06 -0.4002162E-01  0.1030823E+01  0.2193942E+05  0.7484443E+05  0.6292870E+00  0.1364441E+00  0.1023396E+04 -0.1854817E+04 -0.7302712E+00  0.4505615E+00  0.2253446E+05  0.8726997E+05 -0.1596796E+00  0.3752441E+00
  0.2130000E+01  0.4442340E+05  0.3465761E+06  0.1069315E+00  0.2790070E+00  0.1460504E+04 -0.1516648E+04 -0.1632046E+00 -0.1985474E+00 -0.3510971E+05  0.3778087E+06 -0.6020416E-01  0.3898926E+00 -0.2219788E+05  0.6453883E+05 -0.1370569E+00 -0.6597137E+00 -0.3529127E+04  0.3929453E+04  0.2801313E+00  0.5459595E+00 -0.2702099E+05  0.7011016E+05 -0.1716435E+00  0.2631836E+00
  0.2160000E+01  0.5922285E+05  0.3163873E+06 -0.2279017E-01 -0.1355743E-01 -0.5546692E+03  0.1739675E+04  0.5491574E-02 -0.1073456E+00 -0.2098942E+05  0.3470183E+06  0.1055364E+00  0.5123291E+00 -0.3503232E+05 -0.2144404E+05  0.9080392E-01 -0.1460114E+00 -0.1959099E+04 -0.3574301E+04 -0.5832248E-01  0.2102661E+00 -0.3918330E+05 -0.2899623E+05  0.1056812E-01 -0.1762695E+00
  0.2190000E+01  0.5190009E+05  0.3359937E+06 -0.3491057E-01 -0.1315308E+00 -0.1336844E+03 -0.1450183E+04  0.6581485E-01  0.2098083E+00 -0.2777308E+05  0.3715993E+06  0.1120650E+00  0.4722900E+00 -0.1145671E+04 -0.7162120E+05  0.4367567E-01  0.1137695E+00  0.6428500E+03 -0.3608059E+04 -0.5174053E-01 -0.9344482E-01  0.6462153E+03 -0.8196087E+05 -0.6623290E-01 -0.1220703E-01
  0.2220000E+01  0.4755779E+05  0.2939865E+06 -0.5091418E-01  0.2997742E+00  0.3959637E+03  0.7771244E+03  0.4347552E-01 -0.3215942E+00 -0.3396696E+05  0.3312949E+06 -0.3361057E-01  0.6206055E+00  0.2838036E+05 -0.2690162E+05 -0.1752699E-01  0.1037903E+00  0.1415022E+04 -0.1506091E+03  0.1371916E-01 -0.1090660E+00  0.3329113E+05 -0.2731745E+05  0.3040760E-01 -0.8666992E-02
  0.2250000E+01  0.5820409E+05  0.2992990E+06 -0.4583062E-01 -0.2879333E-01 -0.4779268E+03 -0.1524081E+03  0.4968262E-01  0.1049805E-01 -0.2255622E+05  0.3379031E+06 -0.3138563E-01  0.4897766E+00  0.1773222E+05  0.5115254E+05 -0.3381348E-01 -0.2261353E-01  0.4171920E+03  0.2580804E+04  0.3140598E-01  0.1501465E-01  0.1927724E+05  0.6135538E+05 -0.1828342E-01  0.9948730E-01
  0.2280000E+01  0.4724605E+05  0.2873633E+06 -0.1049376E+00  0.1121216E+00  0.3495678E+03 -0.4676589E+03  0.7486511E-01 -0.1029968E+00 -0.3500243E+05  0.3307251E+06  0.1485189E+00  0.5174561E+00 -0.1388722E+05  0.4953868E+05  0.2288818E-02 -0.5892944E-01 -0.7433665E+03  0.1511500E+04 -0.5086263E-03  0.5969238E-01 -0.1731506E+05  0.5613093E+05 -0.2703750E-01  0.1135254E-01
  0.2310000E+01  0.5662502E+05  0.2628245E+06 -0.3121116E-02  0.1570129E-01 -0.1678069E+03  0.7314731E+03 -0.4683326E-02  0.9025574E-02 -0.2610060E+05  0.3050346E+06 -0.3399077E+00 -0.4504395E-01 -0.2404742E+05 -0.1781358E+05  0.1774908E-01  0.2410889E-02 -0.7780989E+03 -0.1057182E+04 -0.1746504E-01 -0.1037598E-02 -0.2790006E+05 -0.2366973E+05  0.1881257E-01 -0.4345703E-01
  0.2340000E+01  0.5351540E+05  0.2720391E+06 -0.6990025E-01 -0.1087036E+00 -0.1239185E+02 -0.6939303E+03  0.1011971E+00  0.1818542E+00 -0.2946719E+05  0.3195283E+06  0.2390805E+00  0.9276123E+00  0.1115604E+04 -0.5125944E+05  0.3902729E-02  0.3454590E-01  0.1559363E+03 -0.1683221E+04 -0.3638634E-02 -0.3411865E-01  0.2341752E+04 -0.6071549E+05  0.1715310E-01  0.1635742E-01