VARIABLES="w (rad/s)"
"abs(F   1   1)" "angle(F   1   1)"
"abs(F   1   2)" "angle(F   1   2)"
"abs(F   1   3)" "angle(F   1   3)"
"abs(F   1   4)" "angle(F   1   4)"
"abs(F   1   5)" "angle(F   1   5)"
"abs(F   1   6)" "angle(F   1   6)"
Zone t="Diffraction force - beta =   0.000 deg",I=   525,F=POINT
  0.4000000E-01  0.2939134E+02 -0.1570798E+01  0.1157145E-02  0.3141590E+01  0.3764039E+04 -0.5211939E-05  0.6313440E-03  0.3504325E-04  0.7938819E+01  0.1570799E+01  0.1137446E-12 -0.3954105E-01
  0.8000000E-01  0.5987064E+02 -0.1570793E+01  0.2725020E-02 -0.3141578E+01  0.3762504E+04 -0.2085537E-04  0.2383796E-03 -0.8174648E-04  0.1621329E+02  0.1570799E+01  0.2284647E-12 -0.3045714E+01
  0.1200000E+00  0.9063921E+02 -0.1570788E+01  0.6894179E-03 -0.8240377E-04  0.3760034E+04 -0.4696299E-04  0.1715817E-02  0.5744896E-05  0.2451374E+02  0.1570805E+01  0.3428739E-12  0.1024999E+00
  0.1600000E+00  0.1212312E+03 -0.1570780E+01  0.1406250E-02  0.3141272E+01  0.3756559E+04 -0.8359870E-04  0.4922834E-03  0.3141367E+01  0.3275715E+02  0.1570812E+01  0.5700339E-13  0.2727033E-01
  0.2000000E+00  0.1516228E+03 -0.1570772E+01  0.1946940E-02 -0.9519183E-04  0.3752097E+04 -0.1308702E-03  0.1075834E-03  0.3139154E+01  0.4099211E+02  0.1570821E+01  0.1706991E-12  0.3643035E-01
  0.2400000E+00  0.1822193E+03 -0.1570761E+01  0.8913735E-03  0.3141339E+01  0.3746697E+04 -0.1888823E-03  0.1700940E-03  0.3141186E+01  0.4923017E+02  0.1570831E+01  0.4082611E-12  0.2912246E+01
  0.2800000E+00  0.2127348E+03 -0.1570748E+01  0.3704571E-02 -0.3141576E+01  0.3740361E+04 -0.2578118E-03  0.6475726E-03  0.1623059E-03  0.5746247E+02  0.1570845E+01  0.1704233E-12 -0.3052879E+01
  0.3200000E+00  0.2432507E+03 -0.1570732E+01  0.1492706E-02 -0.2183704E-03  0.3733052E+04 -0.3377629E-03  0.5090490E-03 -0.1157208E-02  0.6572883E+02  0.1570859E+01  0.3458600E-12 -0.2999877E+01
  0.3600000E+00  0.2739637E+03 -0.1570715E+01  0.9620189E-03 -0.2449271E-03  0.3724837E+04 -0.4290454E-03  0.5322092E-03  0.3141433E+01  0.7399487E+02  0.1570877E+01  0.5143775E-12 -0.9771425E-01
  0.4000000E+00  0.3047721E+03 -0.1570695E+01  0.3782035E-02  0.1403620E-03  0.3715657E+04 -0.5318169E-03  0.1613425E-02  0.1673021E-03  0.8227653E+02  0.1570898E+01  0.2127799E-12 -0.1302530E+01
  0.4400000E+00  0.3355244E+03 -0.1570674E+01  0.9466628E-03 -0.3141477E+01  0.3705538E+04 -0.6462930E-03  0.3298096E-03  0.1430692E-02  0.9056428E+02  0.1570920E+01  0.6306692E-13 -0.1556712E+01
  0.4800000E+00  0.3663782E+03 -0.1570649E+01  0.1020406E-02  0.4782544E-03  0.3694521E+04 -0.7729715E-03  0.1062839E-02  0.3141318E+01  0.9889655E+02  0.1570944E+01  0.1013791E-12  0.9676066E+00
  0.5200000E+00  0.3973861E+03 -0.1570621E+01  0.3455386E-02 -0.3141161E+01  0.3682547E+04 -0.9120788E-03  0.9763949E-03  0.8978246E-04  0.1072517E+03  0.1570971E+01  0.2304854E-12  0.2076678E+01
  0.5600000E+00  0.4285724E+03 -0.1570591E+01  0.2361828E-02 -0.5070998E-03  0.3669646E+04 -0.1063599E-02  0.3129453E-03 -0.1851433E-02  0.1156205E+03  0.1571001E+01  0.1113780E-12  0.3021689E+01
  0.6000000E+00  0.4598325E+03 -0.1570558E+01  0.3117599E-02  0.1120240E-02  0.3655882E+04 -0.1228467E-02  0.3929376E-03 -0.3139261E+01  0.1239964E+03  0.1571035E+01  0.4559410E-12  0.9559813E-01
  0.6400000E+00  0.4912281E+03 -0.1570522E+01  0.1850544E-03 -0.3128456E+01  0.3641172E+04 -0.1407413E-02  0.1136352E-02  0.9264916E-03  0.1324145E+03  0.1571071E+01  0.7446185E-12 -0.1183631E+00
  0.6800000E+00  0.5227554E+03 -0.1570482E+01  0.3096612E-03  0.3133394E+01  0.3625539E+04 -0.1600404E-02  0.1675398E-02 -0.3141330E+01  0.1408699E+03  0.1571110E+01  0.1890699E-12  0.2678996E+01
  0.7200000E+00  0.5543826E+03 -0.1570439E+01  0.3450086E-02 -0.3140402E+01  0.3609011E+04 -0.1807002E-02  0.8520236E-03  0.5302944E-03  0.1493520E+03  0.1571153E+01  0.1247702E-12  0.2762408E+01
  0.7600000E+00  0.5861028E+03 -0.1570392E+01  0.7424858E-04  0.3041026E+01  0.3591597E+04 -0.2028866E-02  0.2995599E-03 -0.3138503E+01  0.1578671E+03  0.1571200E+01  0.2640508E-12 -0.5366701E+00
  0.8000000E+00  0.6181255E+03 -0.1570341E+01  0.1067178E-02  0.3135201E+01  0.3573341E+04 -0.2267128E-02  0.8143873E-04 -0.3119692E+01  0.1664290E+03  0.1571251E+01  0.2760596E-12  0.6335273E+00
  0.8400000E+00  0.6503727E+03 -0.1570286E+01  0.2497994E-02 -0.3141374E+01  0.3554161E+04 -0.2523029E-02  0.9616129E-03 -0.2702037E-02  0.1750311E+03  0.1571306E+01  0.3099936E-12 -0.7661504E+00
  0.8800000E+00  0.6828292E+03 -0.1570226E+01  0.1379175E-02  0.3138535E+01  0.3534069E+04 -0.2796747E-02  0.1390313E-02  0.1369352E-02  0.1836728E+03  0.1571366E+01  0.3037599E-12 -0.1566410E+01
  0.9200000E+00  0.7155068E+03 -0.1570162E+01  0.2554093E-02 -0.2393493E-02  0.3513172E+04 -0.3084751E-02  0.9669211E-03  0.8181286E-03  0.1923559E+03  0.1571431E+01  0.8154408E-12 -0.2173694E+00
  0.9600000E+00  0.7483940E+03 -0.1570092E+01  0.4600520E-02  0.1042154E-02  0.3491306E+04 -0.3391436E-02  0.8444480E-03 -0.3140525E+01  0.2010901E+03  0.1571500E+01  0.7909307E-12 -0.2757124E+01
  0.1000000E+01  0.7814042E+03 -0.1570016E+01  0.9856920E-03  0.3133973E+01  0.3468704E+04 -0.3718317E-02  0.1890299E-02  0.3141477E+01  0.2098460E+03  0.1571577E+01  0.2469088E-12  0.2834630E+01
  0.1040000E+01  0.8147391E+03 -0.1569934E+01  0.4064657E-02  0.3139422E+01  0.3445283E+04 -0.4067207E-02  0.3772591E-04  0.9913669E-03  0.2186811E+03  0.1571658E+01  0.5539641E-12 -0.7740610E+00
  0.1080000E+01  0.8483400E+03 -0.1569845E+01  0.3927088E-02  0.2031932E-02  0.3420971E+04 -0.4440399E-02  0.9352448E-03 -0.1842569E-02  0.2275885E+03  0.1571748E+01  0.5894133E-12 -0.9351311E+00
  0.1120000E+01  0.8821682E+03 -0.1569749E+01  0.1417644E-02 -0.3128732E+01  0.3395741E+04 -0.4842284E-02  0.7941572E-03  0.3140261E+01  0.2365537E+03  0.1571844E+01  0.6386399E-12  0.1112606E-01
  0.1160000E+01  0.9162924E+03 -0.1569646E+01  0.2902197E-02 -0.3140778E+01  0.3369792E+04 -0.5256285E-02  0.1173418E-02 -0.3139651E+01  0.2455907E+03  0.1571947E+01  0.9588789E-12 -0.6049588E+00
  0.1200000E+01  0.9507892E+03 -0.1569534E+01  0.3785911E-03 -0.1067647E-01  0.3343013E+04 -0.5693391E-02  0.6598710E-03  0.1445886E-01  0.2546788E+03  0.1572058E+01  0.1050650E-11 -0.1349194E+01
  0.1240000E+01  0.9856799E+03 -0.1569414E+01  0.1412204E-02 -0.3140888E+01  0.3315382E+04 -0.6156810E-02  0.1841531E-03  0.3124387E+01  0.2638504E+03  0.1572178E+01  0.6443212E-12  0.1377997E+01
  0.1280000E+01  0.1020845E+04 -0.1569283E+01  0.2528763E-02 -0.3140807E+01  0.3287080E+04 -0.6649124E-02  0.3663997E-03  0.4715160E-02  0.2730581E+03  0.1572309E+01  0.5751894E-12  0.3098343E+01
  0.1320000E+01  0.1056487E+04 -0.1569140E+01  0.9894267E-03 -0.3115950E+01  0.3258037E+04 -0.7173850E-02  0.1611739E-02  0.3139875E+01  0.2823766E+03  0.1572452E+01  0.7492695E-12 -0.1705150E+01
  0.1360000E+01  0.1092536E+04 -0.1568986E+01  0.1889193E-02  0.7485385E-02  0.3228210E+04 -0.7734749E-02  0.1120108E-02 -0.6379037E-02  0.2917787E+03  0.1572607E+01  0.5845699E-12 -0.7079670E+00
  0.1400000E+01  0.1128936E+04 -0.1568819E+01  0.1337373E-03  0.2774743E-01  0.3197574E+04 -0.8336623E-02  0.1087567E-03  0.3622015E-01  0.3012598E+03  0.1572774E+01  0.2320170E-12 -0.2698490E+01
  0.1440000E+01  0.1165793E+04 -0.1568639E+01  0.7176686E-03  0.3126414E+01  0.3166081E+04 -0.8985618E-02  0.7837262E-03 -0.3138441E+01  0.3108503E+03  0.1572954E+01  0.4087011E-12 -0.1596877E+01
  0.1480000E+01  0.1203097E+04 -0.1568445E+01  0.3532196E-03 -0.1271963E-01  0.3134065E+04 -0.9632081E-02  0.1145423E-02 -0.3138468E+01  0.3205299E+03  0.1573147E+01  0.3767384E-12  0.1937293E+01
  0.1520000E+01  0.1240794E+04 -0.1568236E+01  0.1840025E-02  0.3141212E+01  0.3101288E+04 -0.1031717E-01  0.7428208E-03  0.3317928E-02  0.3302964E+03  0.1573357E+01  0.9447028E-12 -0.2604721E+01
  0.1560000E+01  0.1279009E+04 -0.1568008E+01  0.1885552E-02  0.9720422E-03  0.3067777E+04 -0.1104218E-01  0.2231775E-04 -0.2957103E+01  0.3401931E+03  0.1573584E+01  0.6482411E-12  0.4660987E+00
  0.1600000E+01  0.1317535E+04 -0.1567761E+01  0.1033929E-02 -0.3119612E+01  0.3033689E+04 -0.1181115E-01  0.1407267E-02 -0.3136852E+01  0.3501543E+03  0.1573831E+01  0.8255837E-12  0.2598959E+01
  0.1640000E+01  0.1356706E+04 -0.1567490E+01  0.1486995E-02 -0.3132814E+01  0.2999125E+04 -0.1263055E-01  0.4682559E-03 -0.3133675E+01  0.3602795E+03  0.1574101E+01  0.1520621E-11 -0.1667908E+01
  0.1680000E+01  0.1396404E+04 -0.1567194E+01  0.6627067E-03 -0.1421119E-01  0.2963906E+04 -0.1350682E-01  0.1905641E-03  0.1057532E-01  0.3705201E+03  0.1574397E+01  0.8278738E-12  0.7277115E+00
  0.1720000E+01  0.1436879E+04 -0.1566873E+01  0.2737231E-02  0.2308207E-02  0.2928000E+04 -0.1444845E-01  0.1153918E-02  0.3136248E+01  0.3809099E+03  0.1574719E+01  0.7065704E-12 -0.1946634E+01
  0.1760000E+01  0.1477944E+04 -0.1566526E+01  0.1356067E-03 -0.3063605E+01  0.2891460E+04 -0.1546594E-01  0.1135922E-02 -0.6405544E-02  0.3914099E+03  0.1575067E+01  0.1070271E-11  0.2015145E+01
  0.1800000E+01  0.1519757E+04 -0.1566151E+01  0.1709536E-02 -0.3129398E+01  0.2854248E+04 -0.1655604E-01  0.6379754E-03 -0.1567655E-01  0.4020590E+03  0.1575442E+01  0.2474179E-12 -0.1010674E+01
  0.1840000E+01  0.1562245E+04 -0.1565746E+01  0.7065224E-03 -0.4197093E-02  0.2816771E+04 -0.1761160E-01  0.4590490E-03  0.3124645E+01  0.4128467E+03  0.1575846E+01  0.1178923E-11 -0.1101758E+01
  0.1880000E+01  0.1605373E+04 -0.1565309E+01  0.1109032E-02 -0.2397246E-01  0.2778746E+04 -0.1872991E-01  0.1056771E-03 -0.3086425E+01  0.4237532E+03  0.1576283E+01  0.8419126E-12  0.1479945E+01
  0.1920000E+01  0.1649235E+04 -0.1564834E+01  0.6661884E-04  0.2580610E+01  0.2740120E+04 -0.1991130E-01  0.3394407E-03 -0.1921534E-01  0.4348246E+03  0.1576757E+01  0.2946184E-12  0.2158799E+01
  0.1960000E+01  0.1693727E+04 -0.1564318E+01  0.5245207E-03  0.3137900E+01  0.2701075E+04 -0.2116059E-01  0.2728565E-03 -0.1325964E-01  0.4460208E+03  0.1577273E+01  0.7009748E-12 -0.1515017E+01
  0.2000000E+01  0.1738950E+04 -0.1563753E+01  0.2435955E-03  0.1597558E+00  0.2661945E+04 -0.2248791E-01  0.3741530E-03 -0.3127344E+01  0.4573677E+03  0.1577838E+01  0.3838452E-12 -0.8476123E+00
  0.2040000E+01  0.1785055E+04 -0.1563134E+01  0.1149510E-03 -0.7636173E-01  0.2622553E+04 -0.2390608E-01  0.4084921E-03 -0.3123987E+01  0.4689137E+03  0.1578456E+01  0.6170789E-12 -0.1923502E+01
  0.2080000E+01  0.1831969E+04 -0.1562458E+01  0.1167428E-02  0.1236874E-01  0.2582732E+04 -0.2542885E-01  0.7521393E-03  0.3130660E+01  0.4806342E+03  0.1579133E+01  0.6022977E-12  0.2656839E+01
  0.2120000E+01  0.1879678E+04 -0.1561723E+01  0.1552250E-02  0.1501452E-01  0.2542446E+04 -0.2707187E-01  0.8946382E-04  0.2927274E+01  0.4925427E+03  0.1579869E+01  0.1111727E-11 -0.1859192E+01
  0.2160000E+01  0.1928181E+04 -0.1560930E+01  0.2723039E-02  0.3141119E+01  0.2501777E+04 -0.2886797E-01  0.8694369E-03  0.9663500E-03  0.5046328E+03  0.1580663E+01  0.4534861E-12  0.2370044E+01
  0.2200000E+01  0.1977454E+04 -0.1560076E+01  0.6953671E-03 -0.8457469E-01  0.2461032E+04 -0.3066703E-01  0.4620090E-03 -0.1068430E-02  0.5168777E+03  0.1581517E+01  0.9233023E-12 -0.1784039E+01
  0.2240000E+01  0.2027584E+04 -0.1559158E+01  0.1147378E-02 -0.3133152E+01  0.2420138E+04 -0.3243066E-01  0.1873321E-03  0.2959227E+01  0.5293311E+03  0.1582434E+01  0.5187448E-12 -0.9409931E+00
  0.2280000E+01  0.2078414E+04 -0.1558171E+01  0.1337022E-02  0.3130013E+01  0.2379009E+04 -0.3428845E-01  0.6846920E-04  0.9141782E-01  0.5419293E+03  0.1583421E+01  0.3768557E-12  0.7720658E+00
  0.2320000E+01  0.2130326E+04 -0.1557106E+01  0.2294560E-03  0.5165126E-01  0.2337598E+04 -0.3623825E-01  0.9155491E-03  0.3112176E+01  0.5547452E+03  0.1584484E+01  0.1040624E-11 -0.7515947E+00
  0.2360000E+01  0.2183001E+04 -0.1555954E+01  0.1757761E-02  0.6270568E-01  0.2296188E+04 -0.3828325E-01  0.7618768E-03  0.8492881E-02  0.5676461E+03  0.1585634E+01  0.1311086E-11 -0.1893403E+01
  0.2400000E+01  0.2236695E+04 -0.1554706E+01  0.1968193E-02  0.4222078E-01  0.2255417E+04 -0.4043822E-01  0.9852864E-03 -0.3313709E-01  0.5807342E+03  0.1586882E+01  0.3168892E-12  0.8329818E+00
  0.2440000E+01  0.2291478E+04 -0.1553350E+01  0.1257978E-02  0.3102968E+01  0.2214461E+04 -0.4272900E-01  0.9509809E-04  0.3078588E+01  0.5940219E+03  0.1588237E+01  0.4216369E-12 -0.2779863E+01
  0.2480000E+01  0.2347171E+04 -0.1551878E+01  0.2022991E-03 -0.3117136E+01  0.2173530E+04 -0.4517471E-01  0.9597578E-03  0.9771190E-02  0.6074684E+03  0.1589709E+01  0.4327458E-12 -0.2926485E+01
  0.2520000E+01  0.2403810E+04 -0.1550290E+01  0.1205119E-02  0.3054620E+01  0.2132633E+04 -0.4779676E-01  0.1207957E-02  0.2240329E-01  0.6211156E+03  0.1591299E+01  0.1603908E-11  0.1726477E+01
  0.2560000E+01  0.2461158E+04 -0.1548589E+01  0.6778028E-03  0.2959435E+01  0.2091740E+04 -0.5063412E-01  0.3515362E-03  0.1427369E-01  0.6348729E+03  0.1593001E+01  0.2686342E-11  0.1466127E+01
  0.2600000E+01  0.2519405E+04 -0.1546774E+01  0.4468179E-03 -0.7417062E-01  0.2050901E+04 -0.5355502E-01  0.4335825E-03 -0.3138023E+01  0.6487703E+03  0.1594816E+01  0.9565976E-13  0.5467880E+00
  0.2640000E+01  0.2578497E+04 -0.1544847E+01  0.3198631E-03 -0.6414641E-01  0.2010289E+04 -0.5625490E-01  0.8474200E-03 -0.2246207E-01  0.6628458E+03  0.1596742E+01  0.1682427E-11 -0.1992880E+01
  0.2680000E+01  0.2637983E+04 -0.1542808E+01  0.9871088E-03 -0.3026961E+01  0.1969755E+04 -0.5908674E-01  0.6401273E-04 -0.1081821E+01  0.6769318E+03  0.1598780E+01  0.1379625E-12  0.1778293E+01
  0.2720000E+01  0.2698242E+04 -0.1540639E+01  0.1176907E-02 -0.3074083E+01  0.1929309E+04 -0.6202946E-01  0.8683872E-03 -0.3144073E-02  0.6911793E+03  0.1600946E+01  0.2132812E-12 -0.1537476E+01
  0.2760000E+01  0.2759060E+04 -0.1538332E+01  0.1433198E-02 -0.3122347E+01  0.1888827E+04 -0.6507936E-01  0.2645350E-04 -0.3947260E+00  0.7055143E+03  0.1603253E+01  0.1261354E-11  0.2145518E+01
  0.2800000E+01  0.2820022E+04 -0.1535869E+01  0.2055435E-02 -0.3081631E+01  0.1849872E+04 -0.6820635E-01  0.5897123E-03 -0.7599847E-02  0.7197849E+03  0.1605713E+01  0.4265623E-12 -0.1047519E+01
  0.2840000E+01  0.2881922E+04 -0.1533244E+01  0.1178671E-02 -0.2985301E-01  0.1811065E+04 -0.7148538E-01  0.9277944E-03  0.6862002E-02  0.7342943E+03  0.1608338E+01  0.1472487E-11 -0.1005548E+01
  0.2880000E+01  0.2943938E+04 -0.1530445E+01  0.3947351E-03 -0.3137516E+01  0.1772392E+04 -0.7493635E-01  0.2186061E-03 -0.3131559E+01  0.7487411E+03  0.1611137E+01  0.1842653E-11 -0.1143371E+01
  0.2920000E+01  0.3006594E+04 -0.1527464E+01  0.5698423E-03  0.3076303E+01  0.1734516E+04 -0.7857983E-01  0.1202101E-03 -0.2305058E+00  0.7633298E+03  0.1614120E+01  0.2203335E-11 -0.1486851E+01
  0.2960000E+01  0.3069220E+04 -0.1524307E+01  0.2134894E-02  0.4362371E-01  0.1696829E+04 -0.8243403E-01  0.3429356E-03  0.1527013E-01  0.7778732E+03  0.1617280E+01  0.8253318E-12 -0.1622475E+01
  0.3000000E+01  0.3132457E+04 -0.1520990E+01  0.3350708E-03  0.3109300E+01  0.1659346E+04 -0.8656742E-01  0.3975330E-03  0.3130439E+01  0.7924342E+03  0.1620598E+01  0.1240930E-11 -0.1484802E+01
  0.3040000E+01  0.3195977E+04 -0.1517527E+01  0.4178110E-02 -0.1215131E-01  0.1622389E+04 -0.9064730E-01  0.3057061E-03 -0.5493857E-01  0.8068659E+03  0.1624060E+01  0.1312217E-11 -0.1895972E+01
  0.3080000E+01  0.3259848E+04 -0.1513918E+01  0.1924078E-02  0.3093271E+01  0.1585231E+04 -0.9453612E-01  0.7801950E-04  0.2785705E+01  0.8213025E+03  0.1627667E+01  0.1355094E-11  0.1704907E+01
  0.3120000E+01  0.3323570E+04 -0.1510162E+01  0.4381164E-03  0.2689954E+01  0.1548554E+04 -0.9857909E-01  0.2113624E-03  0.1472911E+00  0.8355375E+03  0.1631420E+01  0.1513376E-11 -0.1667195E+01
  0.3160000E+01  0.3387291E+04 -0.1506248E+01  0.1040869E-02 -0.3116207E+01  0.1511942E+04 -0.1027511E+00  0.4018397E-03 -0.3033496E+01  0.8496941E+03  0.1635330E+01  0.1828802E-11 -0.1625217E+01
  0.3200000E+01  0.3450978E+04 -0.1502163E+01  0.1898020E-03  0.1551403E+01  0.1475897E+04 -0.1070368E+00  0.1336259E-03 -0.3097601E+01  0.8637576E+03  0.1639410E+01  0.7391005E-12  0.1922797E-01
  0.3240000E+01  0.3513555E+04 -0.1497903E+01  0.1068961E-03  0.8171430E+00  0.1440502E+04 -0.1113308E+00  0.3772690E-03  0.4597389E-01  0.8773773E+03  0.1643666E+01  0.9745387E-12 -0.1817544E+01
  0.3280000E+01  0.3576317E+04 -0.1493447E+01  0.6997268E-03  0.2828324E+01  0.1406547E+04 -0.1157172E+00  0.3878890E-03  0.5742168E-01  0.8909808E+03  0.1648118E+01  0.4386559E-12 -0.1416303E+01
  0.3320000E+01  0.3638562E+04 -0.1488803E+01  0.2171981E-02 -0.3081725E+01  0.1373009E+04 -0.1202720E+00  0.2422291E-03  0.3101581E+01  0.9043370E+03  0.1652760E+01  0.1630537E-11 -0.1457252E+01
  0.3360000E+01  0.3700096E+04 -0.1483958E+01  0.3183100E-02 -0.4647901E-01  0.1340146E+04 -0.1250168E+00  0.3865295E-03  0.2967029E+01  0.9174304E+03  0.1657605E+01  0.1071860E-11  0.1677061E+01
  0.3400000E+01  0.3761126E+04 -0.1478916E+01  0.9126068E-03 -0.2863735E+01  0.1307375E+04 -0.1299604E+00  0.4257905E-03 -0.1065322E+00  0.9303541E+03  0.1662650E+01  0.1006773E-11  0.1942784E+01
  0.3440000E+01  0.3820810E+04 -0.1473686E+01  0.1853409E-02 -0.1266932E+00  0.1274971E+04 -0.1351172E+00  0.8715801E-04  0.2793867E+01  0.9428311E+03  0.1667881E+01  0.1302331E-11 -0.1514844E+01
  0.3480000E+01  0.3879841E+04 -0.1468281E+01  0.2443827E-03 -0.3419882E+00  0.1243594E+04 -0.1405602E+00  0.1739712E-03  0.1471919E+00  0.9551023E+03  0.1673288E+01  0.6648064E-12  0.2388321E+01
  0.3520000E+01  0.3937589E+04 -0.1462722E+01  0.1857566E-02  0.3102010E+01  0.1212211E+04 -0.1459630E+00  0.5254681E-04  0.2134621E+01  0.9669108E+03  0.1678850E+01  0.3322547E-12  0.2138720E-01
  0.3560000E+01  0.3994270E+04 -0.1457017E+01  0.3061286E-04  0.2688666E+01  0.1180789E+04 -0.1512941E+00  0.5629493E-03 -0.4716911E-01  0.9784318E+03  0.1684557E+01  0.2307681E-11  0.1399067E+01
  0.3600000E+01  0.4049492E+04 -0.1451166E+01  0.9871317E-03 -0.3090775E+01  0.1149936E+04 -0.1568174E+00  0.9930063E-04  0.2741243E+01  0.9894702E+03  0.1690409E+01  0.2853311E-12  0.3828176E+00
  0.3640000E+01  0.4103169E+04 -0.1445176E+01  0.2142406E-02  0.7631151E-01  0.1119267E+04 -0.1625234E+00  0.1591824E-03  0.2986757E+01  0.1000107E+04  0.1696400E+01  0.1385158E-11  0.1744801E+01
  0.3680000E+01  0.4155519E+04 -0.1439040E+01  0.2378493E-02  0.3121518E+01  0.1089145E+04 -0.1683930E+00  0.8384508E-03  0.3020234E+01  0.1010369E+04  0.1702535E+01  0.7176506E-12  0.1568320E+01
  0.3720000E+01  0.4205627E+04 -0.1432764E+01  0.1709343E-02  0.3105424E+01  0.1059224E+04 -0.1744169E+00  0.1203038E-02  0.3100879E+01  0.1020019E+04  0.1708812E+01  0.1989388E-11  0.1451758E+01
  0.3760000E+01  0.4253562E+04 -0.1426360E+01  0.1131363E-02 -0.2290521E+00  0.1031115E+04 -0.1800873E+00  0.2036283E-03 -0.2868663E+01  0.1028972E+04  0.1715210E+01  0.8427369E-12  0.9576526E+00
  0.3800000E+01  0.4300609E+04 -0.1419850E+01  0.2264502E-02  0.7907922E-01  0.1003411E+04 -0.1859687E+00  0.1296428E-02  0.5227000E-01  0.1037592E+04  0.1721714E+01  0.6598700E-12  0.2320019E+01
  0.3840000E+01  0.4345640E+04 -0.1413242E+01  0.8704200E-04  0.1780766E+01  0.9759587E+03 -0.1920141E+00  0.5512557E-03 -0.5036592E-01  0.1045541E+04  0.1728315E+01  0.1061650E-11  0.6297811E+00
  0.3880000E+01  0.4388643E+04 -0.1406524E+01  0.1295404E-03 -0.1254475E+01  0.9493619E+03 -0.1982429E+00  0.3180015E-03  0.8498576E-01  0.1052890E+04  0.1735028E+01  0.7856742E-12 -0.1818758E+00
  0.3920000E+01  0.4429764E+04 -0.1399709E+01  0.5297537E-03 -0.1766560E-01  0.9231809E+03 -0.2046637E+00  0.1023863E-03  0.3124134E+00  0.1059723E+04  0.1741841E+01  0.1392596E-11 -0.1922401E+01
  0.3960000E+01  0.4468085E+04 -0.1392811E+01  0.2133255E-02  0.3031564E+01  0.8974121E+03 -0.2112894E+00  0.6807947E-03  0.7386477E-01  0.1065772E+04  0.1748735E+01  0.2957990E-11 -0.1649848E+01
  0.4000000E+01  0.4504203E+04 -0.1385839E+01  0.1568540E-03 -0.1875313E+01  0.8724483E+03 -0.2181435E+00  0.1441133E-03  0.1103814E+00  0.1071202E+04  0.1755705E+01  0.1251690E-11  0.1613384E+01
  0.4040000E+01  0.4538122E+04 -0.1378814E+01  0.2093957E-02  0.3109400E+01  0.8476367E+03 -0.2252717E+00  0.1822032E-04 -0.1322098E+00  0.1076028E+04  0.1762730E+01  0.9425611E-12 -0.8654412E+00
  0.4080000E+01  0.4569358E+04 -0.1371759E+01  0.1443869E-02 -0.3115892E+01  0.8232586E+03 -0.2323363E+00  0.2504135E-03  0.6007748E-01  0.1080122E+04  0.1769783E+01  0.6022267E-12  0.4781585E+00
  0.4120000E+01  0.4598180E+04 -0.1364673E+01  0.4566890E-03  0.1923556E+00  0.7994122E+03 -0.2396287E+00  0.7557355E-03  0.3133799E+01  0.1083596E+04  0.1776870E+01  0.1093942E-11 -0.1041120E+00
  0.4160000E+01  0.4624106E+04 -0.1357601E+01  0.1132662E-02 -0.3089881E+01  0.7757145E+03 -0.2471659E+00  0.6037191E-03  0.2998565E+01  0.1086242E+04  0.1783939E+01  0.1144933E-11  0.1935920E+00
  0.4200000E+01  0.4647302E+04 -0.1350529E+01  0.5094398E-03  0.2629674E+01  0.7524048E+03 -0.2549469E+00  0.2767955E-03 -0.2870578E+01  0.1088256E+04  0.1791011E+01  0.3500011E-11 -0.1874771E+01
  0.4240000E+01  0.4667869E+04 -0.1343476E+01  0.1227872E-02 -0.3032531E+01  0.7294541E+03 -0.2629555E+00  0.1228047E-03 -0.6845949E+00  0.1089620E+04  0.1798061E+01  0.3707390E-11  0.1267797E+01
  0.4280000E+01  0.4685432E+04 -0.1336458E+01  0.1962997E-02 -0.3126479E+01  0.7067942E+03 -0.2711932E+00  0.6755463E-03 -0.3065883E+01  0.1090246E+04  0.1805079E+01  0.5315773E-12  0.2188228E+01
  0.4320000E+01  0.4699284E+04 -0.1329510E+01  0.2129304E-02 -0.3098415E+01  0.6857266E+03 -0.2790665E+00  0.3266840E-03  0.2862776E+01  0.1089874E+04  0.1812015E+01  0.4284980E-12  0.3556775E+00
  0.4360000E+01  0.4710892E+04 -0.1322638E+01  0.2182633E-02 -0.8807136E-02  0.6646094E+03 -0.2866969E+00  0.6026165E-03  0.7723555E-01  0.1088917E+04  0.1818873E+01  0.2262373E-11 -0.1520622E+01
  0.4400000E+01  0.4720137E+04 -0.1315870E+01  0.2462500E-02  0.3135995E+01  0.6445615E+03 -0.2945189E+00  0.3636622E-03  0.2947509E+01  0.1087407E+04  0.1825633E+01  0.6324335E-12  0.1068199E+01
  0.4440000E+01  0.4726222E+04 -0.1309245E+01  0.1360028E-02  0.2881182E+01  0.6244686E+03 -0.3025425E+00  0.2976328E-03  0.1838634E+00  0.1085008E+04  0.1832240E+01  0.1528483E-11 -0.1878674E+01
  0.4480000E+01  0.4729531E+04 -0.1302749E+01  0.2532447E-03 -0.2585164E+01  0.6050291E+03 -0.3107615E+00  0.3014623E-03  0.2767359E+01  0.1081935E+04  0.1838724E+01  0.1436120E-11 -0.2807421E+00
  0.4520000E+01  0.4730468E+04 -0.1296373E+01  0.1329910E-02 -0.3141256E+01  0.5860676E+03 -0.3191276E+00  0.3817861E-03  0.5140301E+00  0.1078348E+04  0.1845094E+01  0.7968626E-12  0.6073238E+00
  0.4560000E+01  0.4728102E+04 -0.1290162E+01  0.1206916E-02  0.5126034E-01  0.5675828E+03 -0.3277301E+00  0.3232825E-03  0.2868566E+01  0.1073975E+04  0.1851299E+01  0.3658371E-11  0.1946276E+01
  0.4600000E+01  0.4722782E+04 -0.1284156E+01  0.3982604E-03 -0.2799728E+01  0.5497979E+03 -0.3365360E+00  0.2732543E-03 -0.2963846E+01  0.1068826E+04  0.1857291E+01  0.1844177E-11  0.1329088E+01
  0.4640000E+01  0.4715102E+04 -0.1278301E+01  0.2445268E-02  0.1517094E+00  0.5323489E+03 -0.3455810E+00  0.3393699E-04  0.6021369E+00  0.1063219E+04  0.1863153E+01  0.9408067E-12  0.1716698E+01
  0.4680000E+01  0.4704593E+04 -0.1272704E+01  0.5335875E-03  0.3063431E+01  0.5150403E+03 -0.3548778E+00  0.1159988E-03 -0.2042539E+01  0.1056861E+04  0.1868736E+01  0.1031675E-11 -0.2661966E+01
  0.4720000E+01  0.4691699E+04 -0.1267285E+01  0.2252756E-02  0.5339887E-01  0.4979537E+03 -0.3643506E+00  0.8975226E-04 -0.2815490E+01  0.1050014E+04  0.1874156E+01  0.2896536E-11 -0.1436857E+01
  0.4760000E+01  0.4676211E+04 -0.1262113E+01  0.1549819E-02  0.6654490E-01  0.4818462E+03 -0.3740815E+00  0.2784779E-04 -0.1667353E+01  0.1042561E+04  0.1879327E+01  0.1191143E-11 -0.1748449E+01
  0.4800000E+01  0.4658122E+04 -0.1257216E+01  0.8271661E-03 -0.2878862E+01  0.4661413E+03 -0.3841378E+00  0.2578533E-03  0.6873651E-01  0.1034467E+04  0.1884213E+01  0.3751206E-11 -0.1256047E+01
  0.4840000E+01  0.4637633E+04 -0.1252566E+01  0.2727296E-02  0.3038864E+01  0.4504513E+03 -0.3944944E+00  0.2463689E-03 -0.4145011E-01  0.1025920E+04  0.1888861E+01  0.1345425E-11  0.3113125E+00
  0.4880000E+01  0.4615281E+04 -0.1248196E+01  0.1016799E-02 -0.2470833E+00  0.4350200E+03 -0.4050756E+00  0.2707216E-03  0.5177787E-01  0.1016971E+04  0.1893220E+01  0.1847046E-11  0.2783947E+01
  0.4920000E+01  0.4591065E+04 -0.1244129E+01  0.2994961E-02  0.1089230E+00  0.4201875E+03 -0.4159509E+00  0.1940715E-03 -0.8945056E+00  0.1007652E+04  0.1897284E+01  0.2963407E-12  0.1995564E+01
  0.4960000E+01  0.4564048E+04 -0.1240407E+01  0.6330430E-03 -0.2857779E+01  0.4051712E+03 -0.4271604E+00  0.1355703E-03 -0.1368402E+01  0.9976340E+03  0.1900988E+01  0.1529385E-11 -0.2208025E+01
  0.5000000E+01  0.4534977E+04 -0.1237031E+01  0.1414157E-03 -0.1732134E+01  0.3919669E+03 -0.4371442E+00  0.1853945E-03 -0.1501809E+00  0.9871000E+03  0.1904304E+01  0.2483047E-11  0.7160053E-01
  0.5040000E+01  0.4504625E+04 -0.1233908E+01  0.1678201E-03 -0.2008814E+01  0.3783762E+03 -0.4472311E+00  0.1436376E-03  0.1100269E+01  0.9764119E+03  0.1907401E+01  0.6782984E-12 -0.7928057E+00
  0.5080000E+01  0.4472800E+04 -0.1231103E+01  0.2315473E-02 -0.3128052E+01  0.3651393E+03 -0.4574767E+00  0.7494837E-04  0.3101671E+01  0.9654815E+03  0.1910196E+01  0.1547495E-11  0.1240243E+01
  0.5120000E+01  0.4438933E+04 -0.1228682E+01  0.9020982E-03  0.2898773E+01  0.3518932E+03 -0.4680458E+00  0.2988843E-03 -0.3138354E+01  0.9540547E+03  0.1912579E+01  0.3151912E-11  0.1845167E+01
  0.5160000E+01  0.4403655E+04 -0.1226590E+01  0.7867282E-03  0.1273348E+01  0.3399068E+03 -0.4788812E+00  0.1296859E-03  0.1311619E+01  0.9423710E+03  0.1914644E+01  0.1250376E-11 -0.2604736E+01
  0.5200000E+01  0.4366956E+04 -0.1224841E+01  0.8548221E-03  0.2695369E+01  0.3274851E+03 -0.4897172E+00  0.4216773E-03 -0.2990521E+01  0.9304613E+03  0.1916374E+01  0.1514209E-11  0.2806904E+01
  0.5240000E+01  0.4328967E+04 -0.1223411E+01  0.1856917E-03  0.3007216E+01  0.3157173E+03 -0.5007844E+00  0.3725726E-03  0.3110027E+01  0.9183649E+03  0.1917808E+01  0.7894255E-12 -0.2471508E+01
  0.5280000E+01  0.4289533E+04 -0.1222377E+01  0.1482574E-02 -0.3079262E+01  0.3045496E+03 -0.5121625E+00  0.5823073E-03  0.2866115E+01  0.9059613E+03  0.1918822E+01  0.8595926E-12  0.2424561E+01
  0.5320000E+01  0.4248942E+04 -0.1221707E+01  0.8875069E-04 -0.5318623E+00  0.2935048E+03 -0.5236790E+00  0.2576420E-03  0.2410069E+01  0.8933707E+03  0.1919476E+01  0.1306806E-11 -0.2113402E+01
  0.5360000E+01  0.4207699E+04 -0.1221387E+01  0.8194661E-03 -0.2317913E+01  0.2827962E+03 -0.5354064E+00  0.3167371E-03  0.3034933E+01  0.8807430E+03  0.1919807E+01  0.1266755E-11  0.2685638E+01
  0.5400000E+01  0.4165564E+04 -0.1221476E+01  0.2439628E-03  0.8671492E+00  0.2717667E+03 -0.5474625E+00  0.1217809E-03 -0.2683587E+01  0.8679133E+03  0.1919683E+01  0.5185264E-12  0.2747807E+01
  0.5440000E+01  0.4122636E+04 -0.1221925E+01  0.3230199E-03  0.6759925E+00  0.2620286E+03 -0.5598301E+00  0.1154623E-03 -0.2463011E+01  0.8550024E+03  0.1919222E+01  0.2338850E-11  0.4409944E+00
  0.5480000E+01  0.4079133E+04 -0.1222733E+01  0.7749491E-03 -0.2927918E+01  0.2517369E+03 -0.5722560E+00  0.3361195E-03 -0.2536835E+01  0.8420462E+03  0.1918419E+01  0.1150065E-12  0.2694349E+01
  0.5520000E+01  0.4034835E+04 -0.1223941E+01  0.5864813E-03 -0.1326230E+00  0.2426230E+03 -0.5851207E+00  0.1054508E-03 -0.1355018E+01  0.8289428E+03  0.1917185E+01  0.1287749E-11  0.1519908E+01
  0.5560000E+01  0.3989972E+04 -0.1225530E+01  0.7595647E-03 -0.2376570E+00  0.2337838E+03 -0.5983545E+00  0.2601620E-03 -0.2737803E+01  0.8157802E+03  0.1915559E+01  0.4044752E-12  0.5142440E+00
  0.5600000E+01  0.3944609E+04 -0.1227466E+01  0.9758351E-03  0.2929367E+01  0.2246319E+03 -0.6119295E+00  0.4654166E-03 -0.3038574E+01  0.8026260E+03  0.1913612E+01  0.1883538E-11 -0.1267687E+01
  0.5640000E+01  0.3898932E+04 -0.1229764E+01  0.1708085E-02  0.5769697E-01  0.2160269E+03 -0.6255645E+00  0.2758719E-03  0.1598792E+00  0.7894995E+03  0.1911302E+01  0.3230288E-12  0.3108593E+01
  0.5680000E+01  0.3853134E+04 -0.1232402E+01  0.3114216E-03 -0.6586608E+00  0.2079181E+03 -0.6395099E+00  0.7506162E-04 -0.4881307E+00  0.7764588E+03  0.1908682E+01  0.1305923E-11  0.1412691E+01
  0.5720000E+01  0.3806490E+04 -0.1235480E+01  0.4007624E-03 -0.2164876E+00  0.2000332E+03 -0.6539482E+00  0.2815996E-03 -0.2999243E+01  0.7632420E+03  0.1905575E+01  0.1960929E-11 -0.1025833E+01
  0.5760000E+01  0.3759621E+04 -0.1238943E+01  0.1101362E-02 -0.3093266E+01  0.1923601E+03 -0.6676831E+00  0.3970802E-03 -0.1469822E+00  0.7500233E+03  0.1902030E+01  0.2119424E-11 -0.2001828E+01
  0.5800000E+01  0.3712839E+04 -0.1242745E+01  0.1193497E-03  0.8049211E+00  0.1850774E+03 -0.6811521E+00  0.3628299E-03  0.3112617E+01  0.7369208E+03  0.1898158E+01  0.2372648E-11  0.2067932E+01
  0.5840000E+01  0.3666297E+04 -0.1246853E+01  0.5046438E-03  0.3030219E+01  0.1777467E+03 -0.6945761E+00  0.1735151E-03  0.2248360E+01  0.7239990E+03  0.1894043E+01  0.8463297E-12 -0.1878940E+01
  0.5880000E+01  0.3619867E+04 -0.1251319E+01  0.1214701E-02  0.2085946E+00  0.1701359E+03 -0.7082822E+00  0.1109733E-03  0.3826019E+00  0.7111738E+03  0.1889562E+01  0.1666810E-11  0.2236466E+01
  0.5920000E+01  0.3573282E+04 -0.1256182E+01  0.5876030E-03  0.7551135E+00  0.1635592E+03 -0.7226978E+00  0.1258678E-03  0.2692863E+01  0.6983636E+03  0.1884649E+01  0.2773787E-11 -0.1614679E+01
  0.5960000E+01  0.3526809E+04 -0.1261383E+01  0.1329539E-02  0.2944366E+01  0.1570883E+03 -0.7374453E+00  0.1791619E-03 -0.2447045E+01  0.6856599E+03  0.1879410E+01  0.2908360E-12 -0.2336759E+01
  0.6000000E+01  0.3480575E+04 -0.1266920E+01  0.5057612E-03 -0.4521140E-01  0.1508809E+03 -0.7517801E+00  0.8763827E-04  0.3095917E+01  0.6731048E+03  0.1873851E+01  0.1687648E-11 -0.1701157E+01
  0.6039999E+01  0.3434531E+04 -0.1272780E+01  0.4239858E-03 -0.2925222E+00  0.1450008E+03 -0.7663291E+00  0.9570191E-04 -0.1708716E+01  0.6606921E+03  0.1868013E+01  0.4115051E-11  0.1886608E+01